TACC:  Starting up job 5577602 
TACC:  Starting parallel tasks... 

     Program PWSCF v.6.7MaX starts on 30Jun2023 at 10: 7: 0 

     This program is part of the open-source Quantum ESPRESSO suite
     for quantum simulation of materials; please cite
         "P. Giannozzi et al., J. Phys.:Condens. Matter 21 395502 (2009);
         "P. Giannozzi et al., J. Phys.:Condens. Matter 29 465901 (2017);
          URL http://www.quantum-espresso.org", 
     in publications or presentations arising from this work. More details at
     http://www.quantum-espresso.org/quote

     Parallel version (MPI), running on   168 processors

     MPI processes distributed on     3 nodes
     R & G space division:  proc/nbgrp/npool/nimage =     168
     Reading input from in

     Current dimensions of program PWSCF are:
     Max number of different atomic species (ntypx) = 10
     Max number of k-points (npk) =  40000
     Max angular momentum in pseudopotentials (lmaxx) =  3

     Atomic positions and unit cell read from directory:
     ./MoS2.save/
     Atomic positions from file used, from input discarded
 

     Subspace diagonalization in iterative solution of the eigenvalue problem:
     a serial algorithm will be used

     Message from routine setup:
     using ibrav=0 with symmetry is DISCOURAGED, use correct ibrav instead
 
     Parallelization info
     --------------------
     sticks:   dense  smooth     PW     G-vecs:    dense   smooth      PW
     Min           5       5      1                  839      839     121
     Max           6       6      2                  894      894     174
     Sum         925     925    295               144835   144835   25445
 


     bravais-lattice index     =            0
     lattice parameter (alat)  =       5.9428  a.u.
     unit-cell volume          =    1155.9745 (a.u.)^3
     number of atoms/cell      =            3
     number of atomic types    =            2
     number of electrons       =        26.00
     number of Kohn-Sham states=          150
     kinetic-energy cutoff     =      95.0000  Ry
     charge density cutoff     =     380.0000  Ry
     Exchange-correlation= PZ
                           (   1   1   0   0   0   0   0)
     Non magnetic calculation with spin-orbit


     celldm(1)=   5.942845  celldm(2)=   0.000000  celldm(3)=   0.000000
     celldm(4)=   0.000000  celldm(5)=   0.000000  celldm(6)=   0.000000

     crystal axes: (cart. coord. in units of alat)
               a(1) = (   1.000000   0.000000   0.000000 )  
               a(2) = (  -0.500000   0.866025   0.000000 )  
               a(3) = (   0.000000   0.000000   6.359669 )  

     reciprocal axes: (cart. coord. in units 2 pi/alat)
               b(1) = (  1.000000  0.577350  0.000000 )  
               b(2) = (  0.000000  1.154701  0.000000 )  
               b(3) = (  0.000000  0.000000  0.157241 )  


     PseudoPot. # 1 for Mo read from file:
     ./pp/Mo_rel_rrkj_sc.UPF
     MD5 check sum: f71c3f63a66b3bf12fe0e23ee3fddfdf
     Pseudo is Norm-conserving, Zval = 14.0
     Generated using "atomic" code by A. Dal Corso  (Quantum ESPRESSO distribution)
     Using radial grid of 1229 points,  7 beta functions with: 
                l(1) =   1
                l(2) =   1
                l(3) =   1
                l(4) =   1
                l(5) =   2
                l(6) =   2
                l(7) =   0

     PseudoPot. # 2 for S  read from file:
     ./pp/S_rel_tm.UPF
     MD5 check sum: 1ecc5906f064474f60bd104a40c2a782
     Pseudo is Norm-conserving, Zval =  6.0
     Generated using "atomic" code by A. Dal Corso  (Quantum ESPRESSO distribution)
     Using radial grid of 1151 points,  5 beta functions with: 
                l(1) =   1
                l(2) =   1
                l(3) =   1
                l(4) =   0
                l(5) =   0

     atomic species   valence    mass     pseudopotential
        Mo            14.00    95.95000     Mo( 1.00)
        S              6.00    32.06500     S ( 1.00)

     12 Sym. Ops. (no inversion) found



   Cartesian axes

     site n.     atom                  positions (alat units)
         1           Mo  tau(   1) = (   0.0000000   0.0000000   3.1798343  )
         2           S   tau(   2) = (   0.0000000   0.5773503   3.6794833  )
         3           S   tau(   3) = (   0.0000000   0.5773503   2.6801853  )

     number of k points=   109

     Number of k-points >= 100: set verbosity='high' to print them.

     Dense  grid:   144835 G-vectors     FFT dimensions: (  40,  40, 240)

     Estimated max dynamical RAM per process >      26.10 MB

     Estimated total dynamical RAM >       4.28 GB
     Message from routine sym_rho_init:
     some processors have no G-vectors for symmetrization
     Message from routine sym_rho_init:
     some processors have no G-vectors for symmetrization
     Message from routine sym_rho_init:
     some processors have no G-vectors for symmetrization
     Message from routine sym_rho_init:
     some processors have no G-vectors for symmetrization
     Message from routine sym_rho_init:
     some processors have no G-vectors for symmetrization
     Message from routine sym_rho_init:
     some processors have no G-vectors for symmetrization
     Message from routine sym_rho_init:
     some processors have no G-vectors for symmetrization

     The potential is recalculated from file :
     ./MoS2.save/charge-density

     Starting wfcs are   42 randomized atomic wfcs +  108 random wfcs

     Band Structure Calculation
     Davidson diagonalization with overlap
     c_bands:  2 eigenvalues not converged
     c_bands:  2 eigenvalues not converged

     ethr =  3.85E-13,  avg # of iterations = 36.8

     total cpu time spent up to now is      609.0 secs

     End of band structure calculation

     Number of k-points >= 100: set verbosity='high' to print the bands.

     Writing output data file ./MoS2.save/
 
     init_run     :      0.04s CPU      0.30s WALL (       1 calls)
     electrons    :    597.23s CPU    607.96s WALL (       1 calls)

     Called by init_run:
     wfcinit      :      0.00s CPU      0.01s WALL (       1 calls)
     potinit      :      0.01s CPU      0.25s WALL (       1 calls)
     hinit0       :      0.01s CPU      0.01s WALL (       1 calls)

     Called by electrons:
     c_bands      :    597.23s CPU    607.96s WALL (       1 calls)
     v_of_rho     :      0.00s CPU      0.00s WALL (       1 calls)

     Called by c_bands:
     init_us_2    :      0.01s CPU      0.01s WALL (     109 calls)
     cegterg      :    540.75s CPU    549.14s WALL (     265 calls)

     Called by *egterg:
     cdiaghg      :    322.61s CPU    324.31s WALL (    4121 calls)
     h_psi        :    180.90s CPU    186.05s WALL (    4386 calls)
     g_psi        :      0.22s CPU      0.22s WALL (    4012 calls)

     Called by h_psi:
     h_psi:calbec :      2.47s CPU      2.55s WALL (    4386 calls)
     vloc_psi     :    175.98s CPU    180.98s WALL (    4386 calls)
     add_vuspsi   :      2.05s CPU      2.11s WALL (    4386 calls)

     General routines
     calbec       :      2.45s CPU      2.53s WALL (    4386 calls)
     fft          :      0.00s CPU      0.00s WALL (       6 calls)
     fftw         :    169.84s CPU    174.74s WALL ( 1294244 calls)
     davcio       :      0.06s CPU      1.86s WALL (     218 calls)
 
     Parallel routines
     fft_scatt_xy :      5.49s CPU      5.61s WALL ( 1294250 calls)
     fft_scatt_yz :    121.43s CPU    124.93s WALL ( 1294250 calls)
 
     PWSCF        :  10m32.09s CPU  10m52.84s WALL

 
   This run was terminated on:  10:17:52  30Jun2023            

=------------------------------------------------------------------------------=
   JOB DONE.
=------------------------------------------------------------------------------=
TACC:  Shutdown complete. Exiting. 
