TACC:  Starting up job 5577501 
TACC:  Starting parallel tasks... 

     Program PWSCF v.6.7MaX starts on 30Jun2023 at  9:21:53 

     This program is part of the open-source Quantum ESPRESSO suite
     for quantum simulation of materials; please cite
         "P. Giannozzi et al., J. Phys.:Condens. Matter 21 395502 (2009);
         "P. Giannozzi et al., J. Phys.:Condens. Matter 29 465901 (2017);
          URL http://www.quantum-espresso.org", 
     in publications or presentations arising from this work. More details at
     http://www.quantum-espresso.org/quote

     Parallel version (MPI), running on  2240 processors

     MPI processes distributed on    40 nodes
     K-points division:     npool     =      16
     R & G space division:  proc/nbgrp/npool/nimage =     140
     Waiting for input...
     Reading input from standard input

     Current dimensions of program PWSCF are:
     Max number of different atomic species (ntypx) = 10
     Max number of k-points (npk) =  40000
     Max angular momentum in pseudopotentials (lmaxx) =  3

     Atomic positions and unit cell read from directory:
     ./MoS2.save/
     Atomic positions from file used, from input discarded
 
     Message from routine readpp:
     file ./MoS2.save/Mo_rel_rrkj_sc.UPF not found
     Message from routine readpp:
     file ./MoS2.save/S_rel_tm.UPF not found

     Subspace diagonalization in iterative solution of the eigenvalue problem:
     a serial algorithm will be used

     Message from routine setup:
     using ibrav=0 with symmetry is DISCOURAGED, use correct ibrav instead
 
     Parallelization info
     --------------------
     sticks:   dense  smooth     PW     G-vecs:    dense   smooth      PW
     Min           6       6      2                 1008     1008     210
     Max           7       7      3                 1073     1073     259
     Sum         925     925    337               144835   144835   31425
 


     bravais-lattice index     =            0
     lattice parameter (alat)  =       5.9428  a.u.
     unit-cell volume          =    1155.9745 (a.u.)^3
     number of atoms/cell      =            3
     number of atomic types    =            2
     number of electrons       =        26.00
     number of Kohn-Sham states=           28
     kinetic-energy cutoff     =      95.0000  Ry
     charge density cutoff     =     380.0000  Ry
     Exchange-correlation= PZ
                           (   1   1   0   0   0   0   0)
     Non magnetic calculation with spin-orbit


     celldm(1)=   5.942845  celldm(2)=   0.000000  celldm(3)=   0.000000
     celldm(4)=   0.000000  celldm(5)=   0.000000  celldm(6)=   0.000000

     crystal axes: (cart. coord. in units of alat)
               a(1) = (   1.000000   0.000000   0.000000 )  
               a(2) = (  -0.500000   0.866025   0.000000 )  
               a(3) = (   0.000000   0.000000   6.359669 )  

     reciprocal axes: (cart. coord. in units 2 pi/alat)
               b(1) = (  1.000000  0.577350  0.000000 )  
               b(2) = (  0.000000  1.154701  0.000000 )  
               b(3) = (  0.000000  0.000000  0.157241 )  


     PseudoPot. # 1 for Mo read from file:
     ./pp/Mo_rel_rrkj_sc.UPF
     MD5 check sum: f71c3f63a66b3bf12fe0e23ee3fddfdf
     Pseudo is Norm-conserving, Zval = 14.0
     Generated using "atomic" code by A. Dal Corso  (Quantum ESPRESSO distribution)
     Using radial grid of 1229 points,  7 beta functions with: 
                l(1) =   1
                l(2) =   1
                l(3) =   1
                l(4) =   1
                l(5) =   2
                l(6) =   2
                l(7) =   0

     PseudoPot. # 2 for S  read from file:
     ./pp/S_rel_tm.UPF
     MD5 check sum: 1ecc5906f064474f60bd104a40c2a782
     Pseudo is Norm-conserving, Zval =  6.0
     Generated using "atomic" code by A. Dal Corso  (Quantum ESPRESSO distribution)
     Using radial grid of 1151 points,  5 beta functions with: 
                l(1) =   1
                l(2) =   1
                l(3) =   1
                l(4) =   0
                l(5) =   0

     atomic species   valence    mass     pseudopotential
        Mo            14.00    95.95000     Mo( 1.00)
        S              6.00    32.06500     S ( 1.00)

     12 Sym. Ops. (no inversion) found



   Cartesian axes

     site n.     atom                  positions (alat units)
         1           Mo  tau(   1) = (   0.0000000   0.0000000   3.1798343  )
         2           S   tau(   2) = (   0.0000000   0.5773503   3.6794833  )
         3           S   tau(   3) = (   0.0000000   0.5773503   2.6801853  )

     number of k points=   300

     Number of k-points >= 100: set verbosity='high' to print them.

     Dense  grid:   144835 G-vectors     FFT dimensions: (  40,  40, 240)

     Estimated max dynamical RAM per process >       6.70 MB

     Estimated total dynamical RAM >      14.66 GB
     Message from routine sym_rho_init:
     some processors have no G-vectors for symmetrization
     Message from routine sym_rho_init:
     some processors have no G-vectors for symmetrization
     Message from routine sym_rho_init:
     some processors have no G-vectors for symmetrization

     The potential is recalculated from file :
     ./MoS2.save/charge-density

     Starting wfcs are   42 randomized atomic wfcs

     Band Structure Calculation
     Davidson diagonalization with overlap
     c_bands:  2 eigenvalues not converged
     c_bands:  2 eigenvalues not converged
     c_bands:  2 eigenvalues not converged

     ethr =  3.85E-13,  avg # of iterations = 68.1

     total cpu time spent up to now is       18.8 secs

     End of band structure calculation

     Number of k-points >= 100: set verbosity='high' to print the bands.

     Writing output data file ./MoS2.save/
 
     init_run     :      0.05s CPU      0.14s WALL (       1 calls)
     electrons    :     17.14s CPU     17.52s WALL (       1 calls)

     Called by init_run:
     wfcinit      :      0.00s CPU      0.01s WALL (       1 calls)
     potinit      :      0.01s CPU      0.09s WALL (       1 calls)
     hinit0       :      0.01s CPU      0.01s WALL (       1 calls)

     Called by electrons:
     c_bands      :     17.14s CPU     17.52s WALL (       1 calls)
     v_of_rho     :      0.00s CPU      0.00s WALL (       1 calls)

     Called by c_bands:
     init_us_2    :      0.00s CPU      0.00s WALL (      19 calls)
     cegterg      :     14.16s CPU     14.47s WALL (      88 calls)

     Called by *egterg:
     cdiaghg      :      2.74s CPU      2.77s WALL (    1582 calls)
     h_psi        :     10.96s CPU     11.24s WALL (    1670 calls)
     g_psi        :      0.01s CPU      0.01s WALL (    1563 calls)

     Called by h_psi:
     h_psi:calbec :      0.24s CPU      0.25s WALL (    1670 calls)
     vloc_psi     :     10.55s CPU     10.83s WALL (    1670 calls)
     add_vuspsi   :      0.13s CPU      0.13s WALL (    1670 calls)

     General routines
     calbec       :      0.23s CPU      0.24s WALL (    1670 calls)
     fft          :      0.00s CPU      0.00s WALL (       6 calls)
     fftw         :     10.22s CPU     10.49s WALL (   68624 calls)
     davcio       :      0.01s CPU      0.01s WALL (      38 calls)
 
     Parallel routines
     fft_scatt_xy :      0.31s CPU      0.31s WALL (   68630 calls)
     fft_scatt_yz :      7.57s CPU      7.77s WALL (   68630 calls)
 
     PWSCF        :     19.01s CPU     20.60s WALL

 
   This run was terminated on:   9:22:14  30Jun2023            

=------------------------------------------------------------------------------=
   JOB DONE.
=------------------------------------------------------------------------------=
TACC:  Shutdown complete. Exiting. 
