TACC:  Starting up job 5864363 
TACC:  Starting parallel tasks... 

     Program PWSCF v.7.2 starts on 16Oct2023 at 10:16: 6 

     This program is part of the open-source Quantum ESPRESSO suite
     for quantum simulation of materials; please cite
         "P. Giannozzi et al., J. Phys.:Condens. Matter 21 395502 (2009);
         "P. Giannozzi et al., J. Phys.:Condens. Matter 29 465901 (2017);
         "P. Giannozzi et al., J. Chem. Phys. 152 154105 (2020);
          URL http://www.quantum-espresso.org", 
     in publications or presentations arising from this work. More details at
     http://www.quantum-espresso.org/quote

     Parallel version (MPI & OpenMP), running on    2240 processor cores
     Number of MPI processes:              2240
     Threads/MPI process:                     1

     MPI processes distributed on    40 nodes
     178558 MiB available memory on the printing compute node when the environment starts
 
     Waiting for input...
     Reading input from standard input

     Current dimensions of program PWSCF are:
     Max number of different atomic species (ntypx) = 10
     Max number of k-points (npk) =  40000
     Max angular momentum in pseudopotentials (lmaxx) =  4
 
     K-points division:     npool     =      16
     R & G space division:  proc/nbgrp/npool/nimage =     140
     Subspace diagonalization in iterative solution of the eigenvalue problem:
     a serial algorithm will be used

 
     Parallelization info
     --------------------
     sticks:   dense  smooth     PW     G-vecs:    dense   smooth      PW
     Min           6       6      1                  952      952     115
     Max           7       7      2                 1007     1007     168
     Sum         925     925    265               136493   136493   20951
 
     Using Slab Decomposition
 


     bravais-lattice index     =            4
     lattice parameter (alat)  =       6.2738  a.u.
     unit-cell volume          =    1288.2966 (a.u.)^3
     number of atoms/cell      =            3
     number of atomic types    =            2
     number of electrons       =        40.00
     number of Kohn-Sham states=           40
     kinetic-energy cutoff     =      85.0000  Ry
     charge density cutoff     =     340.0000  Ry
     scf convergence threshold =      1.0E-10
     mixing beta               =       0.7000
     number of iterations used =            8  plain     mixing
     energy convergence thresh.=      1.0E-08
     force convergence thresh. =      1.0E-05
     press convergence thresh. =      5.0E-01
     Exchange-correlation= PBE
                           (   1   4   3   4   0   0   0)
     nstep                     =           50

     Non magnetic calculation with spin-orbit


     celldm(1)=   6.273764  celldm(2)=   0.000000  celldm(3)=   6.024218
     celldm(4)=   0.000000  celldm(5)=   0.000000  celldm(6)=   0.000000

     crystal axes: (cart. coord. in units of alat)
               a(1) = (   1.000000   0.000000   0.000000 )  
               a(2) = (  -0.500000   0.866025   0.000000 )  
               a(3) = (   0.000000   0.000000   6.024218 )  

     reciprocal axes: (cart. coord. in units 2 pi/alat)
               b(1) = (  1.000000  0.577350  0.000000 )  
               b(2) = (  0.000000  1.154701  0.000000 )  
               b(3) = (  0.000000  0.000000  0.165997 )  


     PseudoPot. # 1 for W  read from file:
     ./pp/W.upf
     MD5 check sum: db67cb0d1e4258a1e3a8a357a2b3a3f2
     Pseudo is Norm-conserving, Zval = 28.0
     Generated using ONCVPSP code by D. R. Hamann
     Using radial grid of 1396 points, 14 beta functions with: 
                l(1) =   0
                l(2) =   0
                l(3) =   1
                l(4) =   1
                l(5) =   1
                l(6) =   1
                l(7) =   2
                l(8) =   2
                l(9) =   2
               l(10) =   2
               l(11) =   3
               l(12) =   3
               l(13) =   3
               l(14) =   3

     PseudoPot. # 2 for Se read from file:
     ./pp/Se.upf
     MD5 check sum: cfe1483cd39788255e734f67871220b5
     Pseudo is Norm-conserving, Zval =  6.0
     Generated using ONCVPSP code by D. R. Hamann
     Using radial grid of 1214 points, 10 beta functions with: 
                l(1) =   0
                l(2) =   0
                l(3) =   1
                l(4) =   1
                l(5) =   1
                l(6) =   1
                l(7) =   2
                l(8) =   2
                l(9) =   2
               l(10) =   2

     atomic species   valence    mass     pseudopotential
        W             28.00   183.84000     W ( 1.00)
        Se             6.00    78.96000     Se( 1.00)

      6 Sym. Ops. (no inversion) found



   Cartesian axes

     site n.     atom                  positions (alat units)
         1           W   tau(   1) = (  -0.0000000   0.5773503   1.0344477  )
         2           Se  tau(   2) = (   0.5000000   0.2886751   1.5351237  )
         3           Se  tau(   3) = (   0.5000000   0.2886751   0.5337717  )

     number of k points=    27
                       cart. coord. in units 2pi/alat
        k(    1) = (   0.0000000   0.0000000   0.0000000), wk =   0.0044444
        k(    2) = (   0.0000000   0.0769800   0.0000000), wk =   0.0266667
        k(    3) = (   0.0000000   0.1539601   0.0000000), wk =   0.0266667
        k(    4) = (   0.0000000   0.2309401   0.0000000), wk =   0.0266667
        k(    5) = (   0.0000000   0.3079201   0.0000000), wk =   0.0266667
        k(    6) = (   0.0000000   0.3849002   0.0000000), wk =   0.0266667
        k(    7) = (   0.0000000   0.4618802   0.0000000), wk =   0.0266667
        k(    8) = (   0.0000000   0.5388603   0.0000000), wk =   0.0266667
        k(    9) = (   0.0666667   0.1154701   0.0000000), wk =   0.0266667
        k(   10) = (   0.0666667   0.1924501   0.0000000), wk =   0.0533333
        k(   11) = (   0.0666667   0.2694301   0.0000000), wk =   0.0533333
        k(   12) = (   0.0666667   0.3464102   0.0000000), wk =   0.0533333
        k(   13) = (   0.0666667   0.4233902   0.0000000), wk =   0.0533333
        k(   14) = (   0.0666667   0.5003702   0.0000000), wk =   0.0533333
        k(   15) = (   0.0666667   0.5773503   0.0000000), wk =   0.0266667
        k(   16) = (   0.1333333   0.2309401   0.0000000), wk =   0.0266667
        k(   17) = (   0.1333333   0.3079201   0.0000000), wk =   0.0533333
        k(   18) = (   0.1333333   0.3849002   0.0000000), wk =   0.0533333
        k(   19) = (   0.1333333   0.4618802   0.0000000), wk =   0.0533333
        k(   20) = (   0.1333333   0.5388603   0.0000000), wk =   0.0533333
        k(   21) = (   0.2000000   0.3464102   0.0000000), wk =   0.0266667
        k(   22) = (   0.2000000   0.4233902   0.0000000), wk =   0.0533333
        k(   23) = (   0.2000000   0.5003702   0.0000000), wk =   0.0533333
        k(   24) = (   0.2000000   0.5773503   0.0000000), wk =   0.0266667
        k(   25) = (   0.2666667   0.4618802   0.0000000), wk =   0.0266667
        k(   26) = (   0.2666667   0.5388603   0.0000000), wk =   0.0533333
        k(   27) = (   0.3333333   0.5773503   0.0000000), wk =   0.0088889

     Dense  grid:   136493 G-vectors     FFT dimensions: (  40,  40, 225)

     Estimated max dynamical RAM per process >      46.53 MB

     Estimated total dynamical RAM >      99.86 GB
     Message from routine sym_rho_init:
     some processors have no G-vectors for symmetrization

     Initial potential from superposition of free atoms

     starting charge      39.9993, renormalised to      40.0000

     negative rho (up, down):  8.446E-07 0.000E+00
     Starting wfcs are   50 randomized atomic wfcs

     total cpu time spent up to now is        0.7 secs

     Self-consistent Calculation

     iteration #  1     ecut=    85.00 Ry     beta= 0.70
     Davidson diagonalization with overlap
     ethr =  1.00E-02,  avg # of iterations =  2.0

     Threshold (ethr) on eigenvalues was too large:
     Diagonalizing with lowered threshold

     Davidson diagonalization with overlap
     ethr =  1.79E-04,  avg # of iterations =  2.3

     total cpu time spent up to now is        1.2 secs

     total energy              =    -581.84456136 Ry
     estimated scf accuracy    <       0.07383265 Ry

     iteration #  2     ecut=    85.00 Ry     beta= 0.70
     Davidson diagonalization with overlap
     ethr =  1.85E-04,  avg # of iterations =  3.4

     total cpu time spent up to now is        1.4 secs

     total energy              =    -581.84187832 Ry
     estimated scf accuracy    <       0.07687358 Ry

     iteration #  3     ecut=    85.00 Ry     beta= 0.70
     Davidson diagonalization with overlap
     ethr =  1.85E-04,  avg # of iterations =  4.1

     total cpu time spent up to now is        1.6 secs

     total energy              =    -581.85450873 Ry
     estimated scf accuracy    <       0.08190353 Ry

     iteration #  4     ecut=    85.00 Ry     beta= 0.70
     Davidson diagonalization with overlap
     ethr =  1.85E-04,  avg # of iterations =  3.0

     total cpu time spent up to now is        1.7 secs

     total energy              =    -581.86648557 Ry
     estimated scf accuracy    <       0.00127451 Ry

     iteration #  5     ecut=    85.00 Ry     beta= 0.70
     Davidson diagonalization with overlap
     ethr =  3.19E-06,  avg # of iterations =  3.6

     total cpu time spent up to now is        1.9 secs

     total energy              =    -581.86673850 Ry
     estimated scf accuracy    <       0.00008580 Ry

     iteration #  6     ecut=    85.00 Ry     beta= 0.70
     Davidson diagonalization with overlap
     ethr =  2.15E-07,  avg # of iterations =  3.7

     total cpu time spent up to now is        2.1 secs

     total energy              =    -581.86673617 Ry
     estimated scf accuracy    <       0.00032045 Ry

     iteration #  7     ecut=    85.00 Ry     beta= 0.70
     Davidson diagonalization with overlap
     ethr =  2.15E-07,  avg # of iterations =  3.2

     total cpu time spent up to now is        2.3 secs

     total energy              =    -581.86677042 Ry
     estimated scf accuracy    <       0.00000113 Ry

     iteration #  8     ecut=    85.00 Ry     beta= 0.70
     Davidson diagonalization with overlap
     ethr =  2.82E-09,  avg # of iterations =  3.1

     total cpu time spent up to now is        2.5 secs

     total energy              =    -581.86677068 Ry
     estimated scf accuracy    <       0.00000003 Ry

     iteration #  9     ecut=    85.00 Ry     beta= 0.70
     Davidson diagonalization with overlap
     ethr =  8.44E-11,  avg # of iterations =  3.6

     total cpu time spent up to now is        2.7 secs

     total energy              =    -581.86677070 Ry
     estimated scf accuracy    <          7.9E-09 Ry

     iteration # 10     ecut=    85.00 Ry     beta= 0.70
     Davidson diagonalization with overlap
     ethr =  1.98E-11,  avg # of iterations =  2.0

     total cpu time spent up to now is        2.9 secs

     total energy              =    -581.86677070 Ry
     estimated scf accuracy    <          1.3E-09 Ry

     iteration # 11     ecut=    85.00 Ry     beta= 0.70
     Davidson diagonalization with overlap
     ethr =  3.29E-12,  avg # of iterations =  2.4

     total cpu time spent up to now is        3.1 secs

     End of self-consistent calculation

          k = 0.0000 0.0000 0.0000 ( 17037 PWs)   bands (ev):

   -72.8254 -72.8254 -44.2301 -44.2301 -34.4929 -34.4929 -34.3938 -34.3938
   -28.3311 -28.3311 -28.3209 -28.3209 -28.2709 -28.2709 -26.1011 -26.1011
   -26.0924 -26.0924 -26.0602 -26.0602 -26.0314 -26.0314 -13.7093 -13.7093
   -12.4315 -12.4315  -5.1165  -5.1165  -1.5090  -1.5090  -1.3775  -1.3775
    -1.0071  -1.0071  -0.4680  -0.4680  -0.0743  -0.0743   0.8365   0.8365

          k = 0.0000 0.0770 0.0000 ( 17040 PWs)   bands (ev):

   -72.8250 -72.8250 -44.2317 -44.2317 -34.4938 -34.4938 -34.4013 -34.4013
   -28.3311 -28.3311 -28.3209 -28.3209 -28.2709 -28.2709 -26.1010 -26.1010
   -26.0925 -26.0925 -26.0602 -26.0602 -26.0314 -26.0314 -13.6445 -13.6445
   -12.3996 -12.3996  -5.0332  -5.0332  -1.6461  -1.6461  -1.4099  -1.4099
    -1.1638  -1.1638  -0.4774  -0.4774  -0.1096  -0.1096   0.8074   0.8074

          k = 0.0000 0.1540 0.0000 ( 17030 PWs)   bands (ev):

   -72.8239 -72.8239 -44.2364 -44.2364 -34.4976 -34.4976 -34.4213 -34.4213
   -28.3311 -28.3311 -28.3209 -28.3209 -28.2709 -28.2709 -26.1006 -26.1006
   -26.0928 -26.0928 -26.0604 -26.0604 -26.0313 -26.0313 -13.4558 -13.4558
   -12.3067 -12.3067  -4.7946  -4.7946  -2.1342  -2.1342  -1.6763  -1.6763
    -1.1516  -1.1516  -0.6829  -0.6829  -0.1857  -0.1857   0.6866   0.6866

          k = 0.0000 0.2309 0.0000 ( 17022 PWs)   bands (ev):

   -72.8222 -72.8222 -44.2433 -44.2433 -34.5081 -34.5081 -34.4452 -34.4452
   -28.3312 -28.3312 -28.3209 -28.3209 -28.2710 -28.2710 -26.1002 -26.1002
   -26.0932 -26.0932 -26.0607 -26.0607 -26.0312 -26.0312 -13.1604 -13.1604
   -12.1621 -12.1621  -4.4442  -4.4442  -2.7910  -2.7910  -2.1637  -2.1637
    -1.0604  -1.0604  -0.8932  -0.8932  -0.3704  -0.3704   0.4236   0.4236

          k = 0.0000 0.3079 0.0000 ( 17036 PWs)   bands (ev):

   -72.8203 -72.8203 -44.2512 -44.2512 -34.5314 -34.5314 -34.4612 -34.4612
   -28.3312 -28.3312 -28.3209 -28.3209 -28.2711 -28.2711 -26.0997 -26.0997
   -26.0936 -26.0936 -26.0611 -26.0611 -26.0310 -26.0310 -12.7896 -12.7896
   -11.9827 -11.9827  -4.1416  -4.1416  -3.3877  -3.3877  -2.7241  -2.7241
    -1.3898  -1.3898  -0.7888  -0.7888  -0.4718  -0.4718   0.0968   0.0968

          k = 0.0000 0.3849 0.0000 ( 17078 PWs)   bands (ev):

   -72.8185 -72.8185 -44.2589 -44.2589 -34.5621 -34.5621 -34.4677 -34.4677
   -28.3313 -28.3313 -28.3208 -28.3208 -28.2711 -28.2711 -26.0993 -26.0993
   -26.0940 -26.0940 -26.0614 -26.0614 -26.0308 -26.0308 -12.3923 -12.3923
   -11.7950 -11.7950  -4.4244  -4.4244  -3.4145  -3.4145  -3.2710  -3.2710
    -1.6829  -1.6829  -0.9235  -0.9235  -0.3417  -0.3417  -0.0444  -0.0444

          k = 0.0000 0.4619 0.0000 ( 17046 PWs)   bands (ev):

   -72.8171 -72.8171 -44.2648 -44.2648 -34.5884 -34.5884 -34.4700 -34.4700
   -28.3313 -28.3313 -28.3208 -28.3208 -28.2712 -28.2712 -26.0990 -26.0990
   -26.0941 -26.0941 -26.0617 -26.0617 -26.0307 -26.0307 -12.0411 -12.0411
   -11.6352 -11.6352  -4.9241  -4.9241  -3.7374  -3.7374  -3.2234  -3.2234
    -1.8900  -1.8900  -1.0348  -1.0348  -0.2372  -0.2372   0.0720   0.0720

          k = 0.0000 0.5389 0.0000 ( 17096 PWs)   bands (ev):

   -72.8163 -72.8163 -44.2681 -44.2681 -34.6033 -34.6033 -34.4707 -34.4707
   -28.3314 -28.3314 -28.3208 -28.3208 -28.2712 -28.2712 -26.0989 -26.0989
   -26.0942 -26.0942 -26.0618 -26.0618 -26.0306 -26.0306 -11.8277 -11.8277
   -11.5422 -11.5422  -5.2303  -5.2303  -3.9875  -3.9875  -3.1603  -3.1603
    -1.9961  -1.9961  -1.0865  -1.0865  -0.1121  -0.1121   0.1902   0.1902

          k = 0.0667 0.1155 0.0000 ( 17029 PWs)   bands (ev):

   -72.8243 -72.8243 -44.2350 -44.2348 -34.4963 -34.4959 -34.4156 -34.4146
   -28.3311 -28.3311 -28.3209 -28.3209 -28.2709 -28.2709 -26.1008 -26.1007
   -26.0927 -26.0927 -26.0604 -26.0604 -26.0313 -26.0313 -13.5190 -13.5165
   -12.3373 -12.3370  -4.8727  -4.8708  -1.9898  -1.9598  -1.5753  -1.5349
    -1.2450  -1.1460  -0.7078  -0.6152  -0.1837  -0.0404   0.7333   0.7339

          k = 0.0667 0.1925 0.0000 ( 17015 PWs)   bands (ev):

   -72.8229 -72.8229 -44.2409 -44.2404 -34.5031 -34.5024 -34.4388 -34.4364
   -28.3312 -28.3311 -28.3209 -28.3209 -28.2710 -28.2710 -26.1004 -26.1003
   -26.0931 -26.0930 -26.0606 -26.0606 -26.0312 -26.0312 -13.2791 -13.2717
   -12.2186 -12.2176  -4.5752  -4.5690  -2.5545  -2.5213  -1.9332  -1.9281
    -1.1260  -1.0831  -1.0789  -0.9321  -0.2384  -0.0617   0.5287   0.5605

          k = 0.0667 0.2694 0.0000 ( 17041 PWs)   bands (ev):

   -72.8211 -72.8211 -44.2485 -44.2477 -34.5194 -34.5192 -34.4594 -34.4564
   -28.3312 -28.3312 -28.3209 -28.3208 -28.2711 -28.2710 -26.1000 -26.0997
   -26.0935 -26.0934 -26.0610 -26.0609 -26.0311 -26.0311 -12.9487 -12.9341
   -12.0562 -12.0544  -4.2166  -4.2005  -3.1770  -3.1629  -2.4400  -2.4177
    -1.5006  -1.4907  -0.9380  -0.7306  -0.4112  -0.2432   0.2067   0.3260

          k = 0.0667 0.3464 0.0000 ( 17072 PWs)   bands (ev):

   -72.8192 -72.8192 -44.2565 -44.2552 -34.5484 -34.5458 -34.4693 -34.4673
   -28.3313 -28.3312 -28.3209 -28.3207 -28.2711 -28.2711 -26.0996 -26.0992
   -26.0939 -26.0937 -26.0613 -26.0613 -26.0309 -26.0309 -12.5668 -12.5431
   -11.8714 -11.8686  -4.1683  -4.1475  -3.4819  -3.4777  -3.0179  -2.9886
    -1.7846  -1.7708  -0.9104  -0.7179  -0.5258  -0.4809  -0.0157   0.2224

          k = 0.0667 0.4234 0.0000 ( 17076 PWs)   bands (ev):

   -72.8176 -72.8176 -44.2635 -44.2618 -34.5782 -34.5734 -34.4730 -34.4719
   -28.3314 -28.3313 -28.3210 -28.3207 -28.2712 -28.2711 -26.0993 -26.0989
   -26.0942 -26.0940 -26.0616 -26.0615 -26.0308 -26.0307 -12.1927 -12.1591
   -11.6953 -11.6916  -4.6474  -4.6397  -3.5527  -3.5282  -3.2791  -3.2683
    -1.9612  -1.9384  -0.9828  -0.9119  -0.6401  -0.5244   0.0301   0.3156

          k = 0.0667 0.5004 0.0000 ( 17070 PWs)   bands (ev):

   -72.8165 -72.8165 -44.2682 -44.2663 -34.5994 -34.5933 -34.4743 -34.4738
   -28.3314 -28.3313 -28.3210 -28.3207 -28.2712 -28.2712 -26.0992 -26.0987
   -26.0943 -26.0941 -26.0618 -26.0617 -26.0307 -26.0306 -11.9079 -11.8659
   -11.5661 -11.5621  -5.0671  -5.0402  -3.9142  -3.8926  -3.1691  -3.1460
    -2.0550  -2.0292  -1.0670  -1.0486  -0.6367  -0.4387   0.1520   0.4740

          k = 0.0667 0.5774 0.0000 ( 17080 PWs)   bands (ev):

   -72.8161 -72.8161 -44.2699 -44.2679 -34.6070 -34.6004 -34.4747 -34.4743
   -28.3314 -28.3313 -28.3210 -28.3206 -28.2712 -28.2712 -26.0992 -26.0986
   -26.0944 -26.0941 -26.0619 -26.0618 -26.0307 -26.0306 -11.7991 -11.7538
   -11.5184 -11.5145  -5.2250  -5.1910  -4.0440  -4.0239  -3.1469  -3.1199
    -2.0845  -2.0578  -1.1043  -1.0958  -0.6037  -0.3805   0.2176   0.5580

          k = 0.1333 0.2309 0.0000 ( 17019 PWs)   bands (ev):

   -72.8214 -72.8214 -44.2476 -44.2464 -34.5147 -34.5145 -34.4594 -34.4549
   -28.3312 -28.3312 -28.3210 -28.3208 -28.2711 -28.2710 -26.1001 -26.0998
   -26.0935 -26.0933 -26.0609 -26.0609 -26.0311 -26.0311 -13.0036 -12.9841
   -12.0816 -12.0791  -4.2505  -4.2296  -3.0763  -3.0480  -2.2579  -2.2153
    -1.6835  -1.6765  -1.0587  -0.8073  -0.2555  -0.0322   0.2816   0.4101

          k = 0.1333 0.3079 0.0000 ( 17040 PWs)   bands (ev):

   -72.8196 -72.8196 -44.2552 -44.2532 -34.5379 -34.5346 -34.4732 -34.4694
   -28.3313 -28.3312 -28.3210 -28.3207 -28.2711 -28.2711 -26.0998 -26.0992
   -26.0939 -26.0936 -26.0613 -26.0612 -26.0310 -26.0309 -12.6596 -12.6238
   -11.9118 -11.9074  -3.9987  -3.9370  -3.5138  -3.4884  -2.7654  -2.6829
    -2.0989  -2.0303  -1.1606  -0.8464  -0.4191  -0.2223   0.1140   0.3651

          k = 0.1333 0.3849 0.0000 ( 17061 PWs)   bands (ev):

   -72.8179 -72.8179 -44.2626 -44.2598 -34.5667 -34.5587 -34.4797 -34.4778
   -28.3314 -28.3313 -28.3211 -28.3206 -28.2712 -28.2711 -26.0995 -26.0988
   -26.0942 -26.0939 -26.0616 -26.0615 -26.0308 -26.0308 -12.2945 -12.2397
   -11.7343 -11.7281  -4.3152  -4.3035  -3.3691  -3.3475  -3.3100  -3.2697
    -2.2261  -2.1590  -1.3452  -1.0633  -0.6575  -0.5235   0.1287   0.4334

          k = 0.1333 0.4619 0.0000 ( 17070 PWs)   bands (ev):

   -72.8166 -72.8166 -44.2683 -44.2649 -34.5910 -34.5794 -34.4827 -34.4824
   -28.3315 -28.3313 -28.3211 -28.3205 -28.2712 -28.2712 -26.0994 -26.0985
   -26.0944 -26.0940 -26.0618 -26.0617 -26.0307 -26.0306 -11.9757 -11.9024
   -11.5832 -11.5759  -4.7537  -4.7178  -3.8154  -3.7661  -3.1503  -3.1186
    -2.2460  -2.1847  -1.4433  -1.2012  -0.8825  -0.8020   0.2406   0.5728

          k = 0.1333 0.5389 0.0000 ( 17057 PWs)   bands (ev):

   -72.8159 -72.8159 -44.2714 -44.2678 -34.6046 -34.5911 -34.4844 -34.4840
   -28.3315 -28.3313 -28.3211 -28.3205 -28.2713 -28.2712 -26.0994 -26.0984
   -26.0945 -26.0940 -26.0620 -26.0618 -26.0307 -26.0306 -11.7844 -11.6992
   -11.4952 -11.4879  -5.0214  -4.9577  -4.0701  -4.0283  -3.1062  -3.0587
    -2.2291  -2.1693  -1.4492  -1.2455  -0.9973  -0.9676   0.3680   0.7231

          k = 0.2000 0.3464 0.0000 ( 17045 PWs)   bands (ev):

   -72.8181 -72.8181 -44.2622 -44.2591 -34.5612 -34.5519 -34.4835 -34.4815
   -28.3314 -28.3312 -28.3211 -28.3206 -28.2712 -28.2711 -26.0996 -26.0987
   -26.0943 -26.0938 -26.0616 -26.0614 -26.0309 -26.0308 -12.3303 -12.2682
   -11.7478 -11.7407  -4.1518  -4.1143  -3.3829  -3.3638  -3.2393  -3.1406
    -2.3958  -2.2880  -1.5591  -1.2799  -0.5519  -0.4063   0.1588   0.4676

          k = 0.2000 0.4234 0.0000 ( 17050 PWs)   bands (ev):

   -72.8167 -72.8167 -44.2683 -44.2642 -34.5834 -34.5678 -34.4911 -34.4903
   -28.3315 -28.3313 -28.3212 -28.3205 -28.2713 -28.2711 -26.0996 -26.0984
   -26.0945 -26.0939 -26.0619 -26.0616 -26.0308 -26.0306 -12.0145 -11.9247
   -11.5920 -11.5828  -4.4490  -4.4261  -3.7359  -3.6568  -3.1194  -3.1020
    -2.4272  -2.3384  -1.9245  -1.7165  -0.7865  -0.7032   0.2622   0.5964

          k = 0.2000 0.5004 0.0000 ( 17040 PWs)   bands (ev):

   -72.8158 -72.8158 -44.2725 -44.2676 -34.5991 -34.5790 -34.4972 -34.4943
   -28.3315 -28.3313 -28.3212 -28.3204 -28.2713 -28.2712 -26.0996 -26.0982
   -26.0946 -26.0939 -26.0620 -26.0618 -26.0307 -26.0306 -11.7799 -11.6678
   -11.4781 -11.4684  -4.6953  -4.6188  -4.0783  -4.0148  -3.0412  -3.0001
    -2.3689  -2.3365  -2.0533  -1.9534  -1.0139  -0.9853   0.4343   0.7962

          k = 0.2000 0.5774 0.0000 ( 17020 PWs)   bands (ev):

   -72.8155 -72.8155 -44.2739 -44.2689 -34.6047 -34.5830 -34.4993 -34.4956
   -28.3316 -28.3313 -28.3212 -28.3204 -28.2713 -28.2712 -26.0996 -26.0981
   -26.0946 -26.0939 -26.0621 -26.0618 -26.0307 -26.0305 -11.6918 -11.5712
   -11.4360 -11.4267  -4.7869  -4.6873  -4.1998  -4.1417  -3.0541  -3.0079
    -2.3263  -2.3258  -2.0451  -2.0097  -1.1111  -1.1095   0.5395   0.9206

          k = 0.2667 0.4619 0.0000 ( 17055 PWs)   bands (ev):

   -72.8158 -72.8158 -44.2728 -44.2676 -34.5962 -34.5726 -34.5039 -34.4990
   -28.3316 -28.3313 -28.3212 -28.3204 -28.2713 -28.2712 -26.0996 -26.0981
   -26.0946 -26.0939 -26.0621 -26.0618 -26.0307 -26.0305 -11.7794 -11.6579
   -11.4717 -11.4612  -4.4981  -4.4263  -4.0810  -4.0059  -2.9775  -2.9709
    -2.5562  -2.4520  -2.3063  -2.2092  -0.9984  -0.9783   0.4549   0.8196

          k = 0.2667 0.5389 0.0000 ( 17018 PWs)   bands (ev):

   -72.8152 -72.8152 -44.2753 -44.2694 -34.6030 -34.5740 -34.5121 -34.5038
   -28.3316 -28.3313 -28.3213 -28.3203 -28.2713 -28.2712 -26.0997 -26.0980
   -26.0947 -26.0939 -26.0622 -26.0619 -26.0307 -26.0305 -11.6430 -11.5028
   -11.4019 -11.3918  -4.4711  -4.3559  -4.2777  -4.2036  -3.1339  -3.0506
    -2.6593  -2.6187  -2.3577  -2.1424  -1.2063  -1.1682   0.6670   1.0821

          k = 0.3333 0.5774 0.0000 ( 17025 PWs)   bands (ev):

   -72.8150 -72.8150 -44.2763 -44.2701 -34.6040 -34.5705 -34.5191 -34.5075
   -28.3316 -28.3313 -28.3213 -28.3203 -28.2713 -28.2712 -26.0997 -26.0980
   -26.0947 -26.0939 -26.0622 -26.0619 -26.0307 -26.0305 -11.5937 -11.4433
   -11.3739 -11.3641  -4.3528  -4.2960  -4.2674  -4.1034  -3.4267  -3.2694
    -2.7755  -2.6974  -2.3379  -2.0973  -1.3185  -1.2406   0.7993   1.2689

     highest occupied level (ev):     1.2689

!    total energy              =    -581.86677070 Ry
     estimated scf accuracy    <          2.3E-11 Ry

     The total energy is the sum of the following terms:
     one-electron contribution =   -2764.97428055 Ry
     hartree contribution      =    1385.27252370 Ry
     xc contribution           =     -50.88863432 Ry
     ewald contribution        =     848.72362048 Ry

     convergence has been achieved in  11 iterations

     Forces acting on atoms (cartesian axes, Ry/au):

     atom    1 type  1   force =     0.00000000    0.00000000    0.00001899
     atom    2 type  2   force =     0.00000000    0.00000000    0.01305347
     atom    3 type  2   force =     0.00000000    0.00000000   -0.01307246
     The non-local contrib.  to forces
     atom    1 type  1   force =     0.00000000    0.00000000    0.00002396
     atom    2 type  2   force =     0.00000000    0.00000000   -0.35432393
     atom    3 type  2   force =     0.00000000    0.00000000    0.35432060
     The ionic contribution  to forces
     atom    1 type  1   force =     0.00000047   -0.00000027   -0.00000078
     atom    2 type  2   force =    -0.00000023    0.00000013   56.18125814
     atom    3 type  2   force =    -0.00000023    0.00000013  -56.18125736
     The local contribution  to forces
     atom    1 type  1   force =     0.00000076   -0.00002673   -0.00003554
     atom    2 type  2   force =     0.00000006    0.00000003  -55.81387030
     atom    3 type  2   force =     0.00000006    0.00000003   55.81387522
     The core correction contribution to forces
     atom    1 type  1   force =     0.00000000    0.00000000    0.00000000
     atom    2 type  2   force =     0.00000000    0.00000000    0.00000000
     atom    3 type  2   force =     0.00000000    0.00000000    0.00000000
     The Hubbard contrib.    to forces
     atom    1 type  1   force =     0.00000000    0.00000000    0.00000000
     atom    2 type  2   force =     0.00000000    0.00000000    0.00000000
     atom    3 type  2   force =     0.00000000    0.00000000    0.00000000
     The SCF correction term to forces
     atom    1 type  1   force =     0.00000000   -0.00000000    0.00004132
     atom    2 type  2   force =    -0.00000000    0.00000000   -0.00000047
     atom    3 type  2   force =    -0.00000000    0.00000000   -0.00000095

     Total force =     0.018474     Total SCF correction =     0.000041


     Computing stress (Cartesian axis) and pressure

          total   stress  (Ry/bohr**3)                   (kbar)     P=        5.67
   0.00002595  -0.00000000   0.00000000            3.82       -0.00        0.00
  -0.00000000   0.00002595   0.00000000           -0.00        3.82        0.00
   0.00000000   0.00000000   0.00006381            0.00        0.00        9.39


     BFGS Geometry Optimization
     Energy error            =      0.0E+00 Ry
     Gradient error          =      1.3E-02 Ry/Bohr
     Cell gradient error     =      3.8E+00 kbar

     number of scf cycles    =   1
     number of bfgs steps    =   0

     enthalpy           new  =    -581.8667706970 Ry

     new trust radius        =       0.0130724604 bohr
ibrav =      4
 celldm(1) =      6.27783465
 celldm(3) =      6.02031188
Input lattice vectors:
     1.00064884    -0.00000000     0.00000000
    -0.50032442     0.86658731     0.00000000
     0.00000000     0.00000000     6.02421807
New lattice vectors in INITIAL alat:
     1.00064884     0.00000000     0.00000000
    -0.50032442     0.86658731     0.00000000
     0.00000000     0.00000000     6.02421807
New lattice vectors in NEW alat (for information only):
     1.00000000     0.00000000     0.00000000
    -0.50000000     0.86602540     0.00000000
     0.00000000     0.00000000     6.02031188
Discrepancy in bohr =     0.000000    0.000000    0.000000
     new conv_thr            =            1.0E-10 Ry

     new unit-cell volume =   1289.96890 a.u.^3 (   191.15367 Ang^3 )
     density =      2.96885 g/cm^3

CELL_PARAMETERS (alat=  6.27376400)
   1.000648836   0.000000000   0.000000000
  -0.500324418   0.866587312   0.000000000
   0.000000000   0.000000000   6.024218072

ATOMIC_POSITIONS (crystal)
W             0.3333333430        0.6666666870        0.1717153445
Se            0.6666666870        0.3333333430        0.2551707629
Se            0.6666666870        0.3333333430        0.0882584336



     Writing config-only to output data dir ./WSe2.save/
     NEW-OLD atomic charge density approx. for the potential
     extrapolated charge   40.05186, renormalised to   40.00000

     total cpu time spent up to now is        3.5 secs

     Self-consistent Calculation

     iteration #  1     ecut=    85.00 Ry     beta= 0.70
     Davidson diagonalization with overlap
     ethr =  1.00E-06,  avg # of iterations =  5.4

     total cpu time spent up to now is        3.8 secs

     total energy              =    -581.83043516 Ry
     estimated scf accuracy    <       0.03539271 Ry

     iteration #  2     ecut=    85.00 Ry     beta= 0.70
     Davidson diagonalization with overlap
     ethr =  8.85E-05,  avg # of iterations =  4.5

     total cpu time spent up to now is        4.1 secs

     total energy              =    -581.80347183 Ry
     estimated scf accuracy    <       0.79850814 Ry

     iteration #  3     ecut=    85.00 Ry     beta= 0.70
     Davidson diagonalization with overlap
     ethr =  8.85E-05,  avg # of iterations =  4.0

     total cpu time spent up to now is        4.3 secs

     total energy              =    -581.86813588 Ry
     estimated scf accuracy    <       0.02177881 Ry

     iteration #  4     ecut=    85.00 Ry     beta= 0.70
     Davidson diagonalization with overlap
     ethr =  5.44E-05,  avg # of iterations =  1.0

     total cpu time spent up to now is        4.4 secs

     total energy              =    -581.86677555 Ry
     estimated scf accuracy    <       0.01330343 Ry

     iteration #  5     ecut=    85.00 Ry     beta= 0.70
     Davidson diagonalization with overlap
     ethr =  3.33E-05,  avg # of iterations =  2.0

     total cpu time spent up to now is        4.5 secs

     total energy              =    -581.86740989 Ry
     estimated scf accuracy    <       0.00307231 Ry

     iteration #  6     ecut=    85.00 Ry     beta= 0.70
     Davidson diagonalization with overlap
     ethr =  7.68E-06,  avg # of iterations =  1.5

     total cpu time spent up to now is        4.7 secs

     total energy              =    -581.86731699 Ry
     estimated scf accuracy    <       0.00327400 Ry

     iteration #  7     ecut=    85.00 Ry     beta= 0.70
     Davidson diagonalization with overlap
     ethr =  7.68E-06,  avg # of iterations =  1.0

     total cpu time spent up to now is        4.8 secs

     total energy              =    -581.86700557 Ry
     estimated scf accuracy    <       0.00257680 Ry

     iteration #  8     ecut=    85.00 Ry     beta= 0.70
     Davidson diagonalization with overlap
     ethr =  6.44E-06,  avg # of iterations =  2.4

     total cpu time spent up to now is        5.0 secs

     total energy              =    -581.86700250 Ry
     estimated scf accuracy    <       0.00069587 Ry

     iteration #  9     ecut=    85.00 Ry     beta= 0.70
     Davidson diagonalization with overlap
     ethr =  1.74E-06,  avg # of iterations =  3.1

     total cpu time spent up to now is        5.2 secs

     total energy              =    -581.86707062 Ry
     estimated scf accuracy    <       0.00005488 Ry

     iteration # 10     ecut=    85.00 Ry     beta= 0.70
     Davidson diagonalization with overlap
     ethr =  1.37E-07,  avg # of iterations =  3.7

     total cpu time spent up to now is        5.3 secs

     total energy              =    -581.86707363 Ry
     estimated scf accuracy    <       0.00001062 Ry

     iteration # 11     ecut=    85.00 Ry     beta= 0.70
     Davidson diagonalization with overlap
     ethr =  2.65E-08,  avg # of iterations =  3.6

     total cpu time spent up to now is        5.5 secs

     total energy              =    -581.86707580 Ry
     estimated scf accuracy    <       0.00000101 Ry

     iteration # 12     ecut=    85.00 Ry     beta= 0.70
     Davidson diagonalization with overlap
     ethr =  2.53E-09,  avg # of iterations =  4.0

     total cpu time spent up to now is        5.7 secs

     total energy              =    -581.86707657 Ry
     estimated scf accuracy    <       0.00000079 Ry

     iteration # 13     ecut=    85.00 Ry     beta= 0.70
     Davidson diagonalization with overlap
     ethr =  1.97E-09,  avg # of iterations =  3.8

     total cpu time spent up to now is        5.9 secs

     total energy              =    -581.86707596 Ry
     estimated scf accuracy    <       0.00000522 Ry

     iteration # 14     ecut=    85.00 Ry     beta= 0.70
     Davidson diagonalization with overlap
     ethr =  1.97E-09,  avg # of iterations =  3.3

     total cpu time spent up to now is        6.1 secs

     total energy              =    -581.86707609 Ry
     estimated scf accuracy    <       0.00000080 Ry

     iteration # 15     ecut=    85.00 Ry     beta= 0.70
     Davidson diagonalization with overlap
     ethr =  1.97E-09,  avg # of iterations =  2.2

     total cpu time spent up to now is        6.3 secs

     total energy              =    -581.86707602 Ry
     estimated scf accuracy    <       0.00000025 Ry

     iteration # 16     ecut=    85.00 Ry     beta= 0.70
     Davidson diagonalization with overlap
     ethr =  6.13E-10,  avg # of iterations =  4.0

     total cpu time spent up to now is        6.4 secs

     total energy              =    -581.86707609 Ry
     estimated scf accuracy    <       0.00000034 Ry

     iteration # 17     ecut=    85.00 Ry     beta= 0.70
     Davidson diagonalization with overlap
     ethr =  6.13E-10,  avg # of iterations =  2.1

     total cpu time spent up to now is        6.6 secs

     total energy              =    -581.86707609 Ry
     estimated scf accuracy    <       0.00000012 Ry

     iteration # 18     ecut=    85.00 Ry     beta= 0.70
     Davidson diagonalization with overlap
     ethr =  3.02E-10,  avg # of iterations =  2.0

     total cpu time spent up to now is        6.7 secs

     total energy              =    -581.86707610 Ry
     estimated scf accuracy    <       0.00000012 Ry

     iteration # 19     ecut=    85.00 Ry     beta= 0.70
     Davidson diagonalization with overlap
     ethr =  3.02E-10,  avg # of iterations =  1.0

     total cpu time spent up to now is        6.9 secs

     total energy              =    -581.86707608 Ry
     estimated scf accuracy    <       0.00000010 Ry

     iteration # 20     ecut=    85.00 Ry     beta= 0.70
     Davidson diagonalization with overlap
     ethr =  2.53E-10,  avg # of iterations =  2.6

     total cpu time spent up to now is        7.0 secs

     total energy              =    -581.86707608 Ry
     estimated scf accuracy    <          3.5E-09 Ry

     iteration # 21     ecut=    85.00 Ry     beta= 0.70
     Davidson diagonalization with overlap
     ethr =  8.87E-12,  avg # of iterations =  3.7

     total cpu time spent up to now is        7.2 secs

     total energy              =    -581.86707608 Ry
     estimated scf accuracy    <          2.6E-09 Ry

     iteration # 22     ecut=    85.00 Ry     beta= 0.70
     Davidson diagonalization with overlap
     ethr =  6.42E-12,  avg # of iterations =  2.4

     total cpu time spent up to now is        7.4 secs

     total energy              =    -581.86707609 Ry
     estimated scf accuracy    <          2.5E-10 Ry

     iteration # 23     ecut=    85.00 Ry     beta= 0.70
     Davidson diagonalization with overlap
     ethr =  6.23E-13,  avg # of iterations =  4.1

     total cpu time spent up to now is        7.6 secs

     End of self-consistent calculation

          k = 0.0000 0.0000 0.0000 ( 17037 PWs)   bands (ev):

   -72.8365 -72.8365 -44.2392 -44.2392 -34.4996 -34.4996 -34.4007 -34.4007
   -28.3391 -28.3391 -28.3302 -28.3302 -28.2810 -28.2810 -26.1097 -26.1097
   -26.1004 -26.1004 -26.0698 -26.0698 -26.0416 -26.0416 -13.6811 -13.6811
   -12.4280 -12.4280  -5.1018  -5.1018  -1.4783  -1.4783  -1.3568  -1.3568
    -1.0112  -1.0112  -0.4500  -0.4500  -0.0543  -0.0543   0.8195   0.8195

          k = 0.0000 0.0769 0.0000 ( 17040 PWs)   bands (ev):

   -72.8361 -72.8361 -44.2408 -44.2408 -34.5005 -34.5005 -34.4081 -34.4081
   -28.3392 -28.3392 -28.3302 -28.3302 -28.2811 -28.2811 -26.1095 -26.1095
   -26.1005 -26.1005 -26.0699 -26.0699 -26.0415 -26.0415 -13.6167 -13.6167
   -12.3958 -12.3958  -5.0186  -5.0186  -1.6163  -1.6162  -1.3955  -1.3955
    -1.1522  -1.1522  -0.4628  -0.4628  -0.0956  -0.0956   0.7912   0.7913

          k = 0.0000 0.1539 0.0000 ( 17030 PWs)   bands (ev):

   -72.8350 -72.8350 -44.2455 -44.2455 -34.5042 -34.5042 -34.4279 -34.4279
   -28.3392 -28.3392 -28.3301 -28.3301 -28.2811 -28.2811 -26.1092 -26.1092
   -26.1008 -26.1008 -26.0701 -26.0701 -26.0414 -26.0414 -13.4290 -13.4290
   -12.3023 -12.3023  -4.7799  -4.7799  -2.1044  -2.1044  -1.6714  -1.6714
    -1.1225  -1.1225  -0.6646  -0.6646  -0.1863  -0.1862   0.6733   0.6733

          k = 0.0000 0.2308 0.0000 ( 17022 PWs)   bands (ev):

   -72.8334 -72.8334 -44.2523 -44.2523 -34.5146 -34.5146 -34.4517 -34.4517
   -28.3393 -28.3393 -28.3301 -28.3301 -28.2812 -28.2812 -26.1088 -26.1088
   -26.1012 -26.1012 -26.0704 -26.0704 -26.0413 -26.0413 -13.1352 -13.1352
   -12.1567 -12.1567  -4.4288  -4.4288  -2.7635  -2.7635  -2.1531  -2.1531
    -1.0382  -1.0382  -0.8696  -0.8696  -0.3786  -0.3786   0.4159   0.4159

          k = 0.0000 0.3077 0.0000 ( 17036 PWs)   bands (ev):

   -72.8315 -72.8315 -44.2601 -44.2601 -34.5373 -34.5373 -34.4677 -34.4677
   -28.3393 -28.3393 -28.3301 -28.3301 -28.2812 -28.2812 -26.1083 -26.1083
   -26.1016 -26.1016 -26.0707 -26.0707 -26.0411 -26.0411 -12.7662 -12.7662
   -11.9760 -11.9760  -4.1207  -4.1207  -3.3683  -3.3683  -2.7111  -2.7111
    -1.3672  -1.3672  -0.7900  -0.7900  -0.4627  -0.4626   0.0959   0.0959

          k = 0.0000 0.3847 0.0000 ( 17078 PWs)   bands (ev):

   -72.8297 -72.8297 -44.2677 -44.2677 -34.5674 -34.5674 -34.4744 -34.4744
   -28.3394 -28.3394 -28.3301 -28.3301 -28.2813 -28.2813 -26.1080 -26.1080
   -26.1019 -26.1019 -26.0711 -26.0711 -26.0410 -26.0410 -12.3708 -12.3708
   -11.7869 -11.7869  -4.3980  -4.3980  -3.4020  -3.4020  -3.2589  -3.2589
    -1.6594  -1.6594  -0.9363  -0.9363  -0.3307  -0.3307  -0.0369  -0.0369

          k = 0.0000 0.4616 0.0000 ( 17046 PWs)   bands (ev):

   -72.8283 -72.8283 -44.2736 -44.2736 -34.5934 -34.5934 -34.4768 -34.4768
   -28.3394 -28.3394 -28.3301 -28.3301 -28.2813 -28.2813 -26.1077 -26.1077
   -26.1020 -26.1020 -26.0713 -26.0713 -26.0409 -26.0409 -12.0212 -12.0212
   -11.6258 -11.6258  -4.8999  -4.8999  -3.7258  -3.7258  -3.2095  -3.2095
    -1.8658  -1.8658  -1.0487  -1.0487  -0.2306  -0.2306   0.0806   0.0806

          k = 0.0000 0.5385 0.0000 ( 17096 PWs)   bands (ev):

   -72.8275 -72.8275 -44.2768 -44.2768 -34.6080 -34.6080 -34.4776 -34.4776
   -28.3395 -28.3395 -28.3300 -28.3300 -28.2814 -28.2814 -26.1077 -26.1077
   -26.1021 -26.1021 -26.0714 -26.0714 -26.0408 -26.0408 -11.8088 -11.8088
   -11.5321 -11.5321  -5.2074  -5.2074  -3.9769  -3.9769  -3.1442  -3.1442
    -1.9715  -1.9715  -1.1004  -1.1004  -0.1061  -0.1061   0.1953   0.1953

          k = 0.0666 0.1154 0.0000 ( 17029 PWs)   bands (ev):

   -72.8354 -72.8354 -44.2440 -44.2439 -34.5029 -34.5026 -34.4222 -34.4213
   -28.3392 -28.3392 -28.3302 -28.3301 -28.2811 -28.2811 -26.1093 -26.1093
   -26.1007 -26.1007 -26.0700 -26.0700 -26.0415 -26.0415 -13.4918 -13.4894
   -12.3331 -12.3328  -4.8580  -4.8562  -1.9593  -1.9304  -1.5718  -1.5321
    -1.2155  -1.1181  -0.6917  -0.5959  -0.1828  -0.0356   0.7191   0.7194

          k = 0.0666 0.1923 0.0000 ( 17015 PWs)   bands (ev):

   -72.8340 -72.8340 -44.2499 -44.2495 -34.5096 -34.5089 -34.4452 -34.4429
   -28.3393 -28.3392 -28.3302 -28.3301 -28.2811 -28.2811 -26.1090 -26.1089
   -26.1011 -26.1010 -26.0703 -26.0703 -26.0414 -26.0414 -13.2532 -13.2460
   -12.2136 -12.2127  -4.5602  -4.5541  -2.5255  -2.4926  -1.9253  -1.9197
    -1.1059  -1.0597  -1.0578  -0.9053  -0.2458  -0.0646   0.5188   0.5506

          k = 0.0666 0.2693 0.0000 ( 17041 PWs)   bands (ev):

   -72.8322 -72.8322 -44.2574 -44.2566 -34.5255 -34.5254 -34.4658 -34.4629
   -28.3393 -28.3393 -28.3302 -28.3300 -28.2812 -28.2812 -26.1086 -26.1084
   -26.1015 -26.1014 -26.0706 -26.0706 -26.0412 -26.0412 -12.9244 -12.9102
   -12.0501 -12.0483  -4.1992  -4.1837  -3.1528  -3.1383  -2.4269  -2.4054
    -1.4846  -1.4719  -0.9176  -0.7074  -0.4208  -0.2494   0.2027   0.3241

          k = 0.0666 0.3462 0.0000 ( 17072 PWs)   bands (ev):

   -72.8304 -72.8304 -44.2653 -44.2641 -34.5539 -34.5514 -34.4759 -34.4739
   -28.3394 -28.3393 -28.3302 -28.3300 -28.2813 -28.2812 -26.1083 -26.1079
   -26.1019 -26.1017 -26.0710 -26.0709 -26.0411 -26.0410 -12.5443 -12.5212
   -11.8639 -11.8611  -4.1411  -4.1210  -3.4694  -3.4657  -3.0037  -2.9751
    -1.7655  -1.7537  -0.9007  -0.7238  -0.5153  -0.4855  -0.0119   0.2284

          k = 0.0666 0.4231 0.0000 ( 17076 PWs)   bands (ev):

   -72.8288 -72.8288 -44.2722 -44.2706 -34.5832 -34.5786 -34.4797 -34.4786
   -28.3395 -28.3394 -28.3302 -28.3299 -28.2813 -28.2813 -26.1080 -26.1076
   -26.1021 -26.1019 -26.0713 -26.0712 -26.0409 -26.0409 -12.1718 -12.1390
   -11.6864 -11.6828  -4.6222  -4.6143  -3.5388  -3.5149  -3.2671  -3.2558
    -1.9405  -1.9194  -0.9846  -0.9238  -0.6387  -0.5156   0.0378   0.3230

          k = 0.0666 0.5000 0.0000 ( 17070 PWs)   bands (ev):

   -72.8277 -72.8277 -44.2769 -44.2751 -34.6041 -34.5982 -34.4811 -34.4805
   -28.3395 -28.3394 -28.3302 -28.3299 -28.2814 -28.2813 -26.1079 -26.1074
   -26.1022 -26.1020 -26.0715 -26.0714 -26.0408 -26.0408 -11.8883 -11.8472
   -11.5562 -11.5523  -5.0437  -5.0171  -3.9014  -3.8804  -3.1540  -3.1308
    -2.0329  -2.0084  -1.0761  -1.0620  -0.6315  -0.4325   0.1583   0.4789

          k = 0.0666 0.5770 0.0000 ( 17080 PWs)   bands (ev):

   -72.8273 -72.8273 -44.2785 -44.2767 -34.6116 -34.6052 -34.4815 -34.4811
   -28.3395 -28.3394 -28.3302 -28.3299 -28.2814 -28.2813 -26.1079 -26.1074
   -26.1022 -26.1020 -26.0715 -26.0714 -26.0408 -26.0408 -11.7800 -11.7357
   -11.5082 -11.5043  -5.2022  -5.1686  -4.0317  -4.0121  -3.1305  -3.1035
    -2.0618  -2.0364  -1.1151  -1.1097  -0.5981  -0.3755   0.2228   0.5614

          k = 0.1332 0.2308 0.0000 ( 17019 PWs)   bands (ev):

   -72.8325 -72.8325 -44.2565 -44.2554 -34.5210 -34.5207 -34.4657 -34.4613
   -28.3393 -28.3393 -28.3302 -28.3300 -28.2812 -28.2812 -26.1087 -26.1084
   -26.1015 -26.1013 -26.0706 -26.0705 -26.0413 -26.0412 -12.9790 -12.9599
   -12.0756 -12.0731  -4.2339  -4.2138  -3.0506  -3.0219  -2.2449  -2.2044
    -1.6651  -1.6619  -1.0366  -0.7830  -0.2654  -0.0391   0.2769   0.4074

          k = 0.1332 0.3077 0.0000 ( 17040 PWs)   bands (ev):

   -72.8308 -72.8308 -44.2641 -44.2621 -34.5436 -34.5404 -34.4797 -34.4759
   -28.3394 -28.3393 -28.3302 -28.3299 -28.2813 -28.2812 -26.1084 -26.1079
   -26.1018 -26.1016 -26.0709 -26.0708 -26.0411 -26.0411 -12.6365 -12.6016
   -11.9046 -11.9003  -3.9722  -3.9120  -3.4993  -3.4752  -2.7484  -2.6676
    -2.0837  -2.0180  -1.1440  -0.8293  -0.4302  -0.2321   0.1164   0.3700

          k = 0.1332 0.3847 0.0000 ( 17061 PWs)   bands (ev):

   -72.8291 -72.8291 -44.2713 -44.2686 -34.5718 -34.5641 -34.4864 -34.4845
   -28.3395 -28.3393 -28.3303 -28.3299 -28.2813 -28.2813 -26.1082 -26.1075
   -26.1021 -26.1018 -26.0712 -26.0711 -26.0410 -26.0409 -12.2730 -12.2194
   -11.7259 -11.7197  -4.2875  -4.2767  -3.3535  -3.3361  -3.2972  -3.2548
    -2.2114  -2.1461  -1.3316  -1.0508  -0.6695  -0.5342   0.1347   0.4402

          k = 0.1332 0.4616 0.0000 ( 17070 PWs)   bands (ev):

   -72.8278 -72.8278 -44.2770 -44.2737 -34.5957 -34.5845 -34.4895 -34.4891
   -28.3396 -28.3394 -28.3303 -28.3298 -28.2814 -28.2813 -26.1081 -26.1072
   -26.1023 -26.1019 -26.0715 -26.0713 -26.0409 -26.0408 -11.9556 -11.8839
   -11.5736 -11.5665  -4.7298  -4.6939  -3.7980  -3.7495  -3.1372  -3.1050
    -2.2306  -2.1707  -1.4325  -1.1924  -0.8944  -0.8131   0.2464   0.5784

          k = 0.1332 0.5385 0.0000 ( 17057 PWs)   bands (ev):

   -72.8271 -72.8271 -44.2801 -44.2765 -34.6091 -34.5961 -34.4911 -34.4908
   -28.3396 -28.3394 -28.3303 -28.3298 -28.2814 -28.2813 -26.1081 -26.1071
   -26.1024 -26.1019 -26.0716 -26.0714 -26.0408 -26.0407 -11.7650 -11.6818
   -11.4850 -11.4778  -4.9990  -4.9359  -4.0530  -4.0119  -3.0900  -3.0424
    -2.2128  -2.1542  -1.4415  -1.2429  -1.0064  -0.9787   0.3728   0.7269

          k = 0.1999 0.3462 0.0000 ( 17045 PWs)   bands (ev):

   -72.8293 -72.8293 -44.2710 -44.2679 -34.5663 -34.5574 -34.4901 -34.4881
   -28.3395 -28.3393 -28.3303 -28.3298 -28.2813 -28.2813 -26.1083 -26.1075
   -26.1022 -26.1017 -26.0712 -26.0711 -26.0410 -26.0409 -12.3086 -12.2479
   -11.7395 -11.7325  -4.1219  -4.0856  -3.3741  -3.3563  -3.2189  -3.1207
    -2.3850  -2.2785  -1.5441  -1.2665  -0.5642  -0.4182   0.1642   0.4743

          k = 0.1999 0.4231 0.0000 ( 17050 PWs)   bands (ev):

   -72.8279 -72.8279 -44.2770 -44.2730 -34.5881 -34.5731 -34.4977 -34.4971
   -28.3396 -28.3394 -28.3304 -28.3297 -28.2814 -28.2813 -26.1083 -26.1071
   -26.1024 -26.1018 -26.0715 -26.0713 -26.0409 -26.0408 -11.9941 -11.9063
   -11.5827 -11.5736  -4.4241  -4.4006  -3.7139  -3.6353  -3.1096  -3.0910
    -2.4178  -2.3289  -1.9110  -1.7038  -0.7997  -0.7158   0.2679   0.6025

          k = 0.1999 0.5000 0.0000 ( 17040 PWs)   bands (ev):

   -72.8270 -72.8270 -44.2811 -44.2764 -34.6035 -34.5841 -34.5038 -34.5011
   -28.3396 -28.3394 -28.3304 -28.3297 -28.2814 -28.2813 -26.1083 -26.1070
   -26.1025 -26.1018 -26.0717 -26.0714 -26.0409 -26.0407 -11.7603 -11.6509
   -11.4679 -11.4584  -4.6730  -4.5969  -4.0558  -3.9928  -3.0269  -2.9848
    -2.3601  -2.3253  -2.0442  -1.9430  -1.0274  -0.9983   0.4391   0.8008

          k = 0.1999 0.5770 0.0000 ( 17020 PWs)   bands (ev):

   -72.8267 -72.8267 -44.2825 -44.2776 -34.6091 -34.5881 -34.5059 -34.5024
   -28.3396 -28.3394 -28.3304 -28.3297 -28.2815 -28.2813 -26.1083 -26.1069
   -26.1025 -26.1018 -26.0717 -26.0715 -26.0408 -26.0407 -11.6726 -11.5548
   -11.4256 -11.4164  -4.7654  -4.6668  -4.1773  -4.1195  -3.0373  -2.9900
    -2.3171  -2.3153  -2.0374  -2.0010  -1.1247  -1.1229   0.5435   0.9241

          k = 0.2665 0.4616 0.0000 ( 17055 PWs)   bands (ev):

   -72.8270 -72.8270 -44.2814 -44.2763 -34.6005 -34.5778 -34.5105 -34.5058
   -28.3396 -28.3394 -28.3305 -28.3296 -28.2815 -28.2813 -26.1083 -26.1069
   -26.1025 -26.1018 -26.0717 -26.0714 -26.0409 -26.0407 -11.7598 -11.6411
   -11.4616 -11.4513  -4.4756  -4.4037  -4.0562  -3.9812  -2.9663  -2.9574
    -2.5416  -2.4449  -2.2947  -2.2044  -1.0117  -0.9913   0.4598   0.8248

          k = 0.2665 0.5385 0.0000 ( 17018 PWs)   bands (ev):

   -72.8265 -72.8265 -44.2838 -44.2782 -34.6072 -34.5792 -34.5186 -34.5106
   -28.3397 -28.3394 -28.3305 -28.3296 -28.2815 -28.2813 -26.1084 -26.1068
   -26.1025 -26.1018 -26.0718 -26.0715 -26.0408 -26.0407 -11.6238 -11.4868
   -11.3915 -11.3815  -4.4507  -4.3359  -4.2515  -4.1776  -3.1144  -3.0343
    -2.6480  -2.6082  -2.3544  -2.1399  -1.2192  -1.1811   0.6702   1.0851

          k = 0.3331 0.5770 0.0000 ( 17025 PWs)   bands (ev):

   -72.8263 -72.8263 -44.2848 -44.2788 -34.6081 -34.5756 -34.5256 -34.5144
   -28.3397 -28.3394 -28.3305 -28.3296 -28.2815 -28.2813 -26.1084 -26.1067
   -26.1026 -26.1018 -26.0719 -26.0716 -26.0408 -26.0406 -11.5747 -11.4278
   -11.3634 -11.3538  -4.3253  -4.2690  -4.2489  -4.0845  -3.4056  -3.2524
    -2.7642  -2.6856  -2.3369  -2.0967  -1.3310  -1.2529   0.8012   1.2698

     highest occupied level (ev):     1.2698

!    total energy              =    -581.86707609 Ry
     estimated scf accuracy    <          3.4E-11 Ry

     The total energy is the sum of the following terms:
     one-electron contribution =   -2759.06309056 Ry
     hartree contribution      =    1382.30832085 Ry
     xc contribution           =     -50.87478799 Ry
     ewald contribution        =     845.76248162 Ry

     convergence has been achieved in  23 iterations

     Forces acting on atoms (cartesian axes, Ry/au):

     atom    1 type  1   force =     0.00000000    0.00000000    0.00000847
     atom    2 type  2   force =     0.00000000   -0.00000000    0.00781090
     atom    3 type  2   force =     0.00000000   -0.00000000   -0.00781937
     The non-local contrib.  to forces
     atom    1 type  1   force =     0.00000000    0.00000000    0.00004584
     atom    2 type  2   force =     0.00000000    0.00000000   -0.35773754
     atom    3 type  2   force =     0.00000000    0.00000000    0.35774647
     The ionic contribution  to forces
     atom    1 type  1   force =     0.00000046   -0.00000027    0.00007465
     atom    2 type  2   force =    -0.00000023    0.00000013   56.09684776
     atom    3 type  2   force =    -0.00000023    0.00000013  -56.09692241
     The local contribution  to forces
     atom    1 type  1   force =     0.00000076   -0.00002675   -0.00006651
     atom    2 type  2   force =     0.00000006    0.00000003  -55.73128290
     atom    3 type  2   force =     0.00000006    0.00000003   55.73137571
     The core correction contribution to forces
     atom    1 type  1   force =     0.00000000    0.00000000    0.00000000
     atom    2 type  2   force =     0.00000000    0.00000000    0.00000000
     atom    3 type  2   force =     0.00000000    0.00000000    0.00000000
     The Hubbard contrib.    to forces
     atom    1 type  1   force =     0.00000000    0.00000000    0.00000000
     atom    2 type  2   force =     0.00000000    0.00000000    0.00000000
     atom    3 type  2   force =     0.00000000    0.00000000    0.00000000
     The SCF correction term to forces
     atom    1 type  1   force =    -0.00000000    0.00000000   -0.00003266
     atom    2 type  2   force =    -0.00000000   -0.00000000   -0.00000358
     atom    3 type  2   force =    -0.00000000   -0.00000000   -0.00000631

     Total force =     0.011052     Total SCF correction =     0.000033


     Computing stress (Cartesian axis) and pressure

          total   stress  (Ry/bohr**3)                   (kbar)     P=        3.19
   0.00001340   0.00000000   0.00000000            1.97        0.00        0.00
   0.00000000   0.00001340  -0.00000000            0.00        1.97       -0.00
   0.00000000  -0.00000000   0.00003821            0.00       -0.00        5.62

     Energy error            =      3.1E-04 Ry
     Gradient error          =      7.8E-03 Ry/Bohr
     Cell gradient error     =      2.0E+00 kbar

     number of scf cycles    =   2
     number of bfgs steps    =   1

     enthalpy           old  =    -581.8667706970 Ry
     enthalpy           new  =    -581.8670760861 Ry

     CASE: enthalpy          _new < enthalpy          _old

     new trust radius        =       0.0143797065 bohr
ibrav =      4
 celldm(1) =      6.28170431
 celldm(3) =      6.01660324
Input lattice vectors:
     1.00126564     0.00000000     0.00000000
    -0.50063282     0.86712148     0.00000000
     0.00000000     0.00000000     6.02421807
New lattice vectors in INITIAL alat:
     1.00126564     0.00000000     0.00000000
    -0.50063282     0.86712148     0.00000000
     0.00000000     0.00000000     6.02421807
New lattice vectors in NEW alat (for information only):
     1.00000000     0.00000000     0.00000000
    -0.50000000     0.86602540     0.00000000
     0.00000000     0.00000000     6.01660324
Discrepancy in bohr =     0.000000    0.000000    0.000000
     new conv_thr            =            1.0E-10 Ry

     new unit-cell volume =   1291.55966 a.u.^3 (   191.38940 Ang^3 )
     density =      2.96519 g/cm^3

CELL_PARAMETERS (alat=  6.27376400)
   1.001265637   0.000000000   0.000000000
  -0.500632818   0.867121477   0.000000000
   0.000000000   0.000000000   6.024218072

ATOMIC_POSITIONS (crystal)
W             0.3333333430        0.6666666870        0.1717157571
Se            0.6666666870        0.3333333430        0.2555508210
Se            0.6666666870        0.3333333430        0.0878779629



     Writing config-only to output data dir ./WSe2.save/
     NEW-OLD atomic charge density approx. for the potential
     extrapolated charge   40.04927, renormalised to   40.00000

     total cpu time spent up to now is        7.9 secs

     Self-consistent Calculation

     iteration #  1     ecut=    85.00 Ry     beta= 0.70
     Davidson diagonalization with overlap
     ethr =  1.00E-06,  avg # of iterations =  5.4

     total cpu time spent up to now is        8.2 secs

     total energy              =    -581.83340256 Ry
     estimated scf accuracy    <       0.03277599 Ry

     iteration #  2     ecut=    85.00 Ry     beta= 0.70
     Davidson diagonalization with overlap
     ethr =  8.19E-05,  avg # of iterations =  4.5

     total cpu time spent up to now is        8.5 secs

     total energy              =    -581.80747691 Ry
     estimated scf accuracy    <       0.75184482 Ry

     iteration #  3     ecut=    85.00 Ry     beta= 0.70
     Davidson diagonalization with overlap
     ethr =  8.19E-05,  avg # of iterations =  4.0

     total cpu time spent up to now is        8.7 secs

     total energy              =    -581.86819644 Ry
     estimated scf accuracy    <       0.02009321 Ry

     iteration #  4     ecut=    85.00 Ry     beta= 0.70
     Davidson diagonalization with overlap
     ethr =  5.02E-05,  avg # of iterations =  1.0

     total cpu time spent up to now is        8.8 secs

     total energy              =    -581.86692293 Ry
     estimated scf accuracy    <       0.01228061 Ry

     iteration #  5     ecut=    85.00 Ry     beta= 0.70
     Davidson diagonalization with overlap
     ethr =  3.07E-05,  avg # of iterations =  2.0

     total cpu time spent up to now is        9.0 secs

     total energy              =    -581.86752175 Ry
     estimated scf accuracy    <       0.00269640 Ry

     iteration #  6     ecut=    85.00 Ry     beta= 0.70
     Davidson diagonalization with overlap
     ethr =  6.74E-06,  avg # of iterations =  1.7

     total cpu time spent up to now is        9.1 secs

     total energy              =    -581.86741472 Ry
     estimated scf accuracy    <       0.00285949 Ry

     iteration #  7     ecut=    85.00 Ry     beta= 0.70
     Davidson diagonalization with overlap
     ethr =  6.74E-06,  avg # of iterations =  1.0

     total cpu time spent up to now is        9.3 secs

     total energy              =    -581.86712208 Ry
     estimated scf accuracy    <       0.00212298 Ry

     iteration #  8     ecut=    85.00 Ry     beta= 0.70
     Davidson diagonalization with overlap
     ethr =  5.31E-06,  avg # of iterations =  2.5

     total cpu time spent up to now is        9.4 secs

     total energy              =    -581.86722056 Ry
     estimated scf accuracy    <       0.00025844 Ry

     iteration #  9     ecut=    85.00 Ry     beta= 0.70
     Davidson diagonalization with overlap
     ethr =  6.46E-07,  avg # of iterations =  2.8

     total cpu time spent up to now is        9.6 secs

     total energy              =    -581.86721954 Ry
     estimated scf accuracy    <       0.00009894 Ry

     iteration # 10     ecut=    85.00 Ry     beta= 0.70
     Davidson diagonalization with overlap
     ethr =  2.47E-07,  avg # of iterations =  3.3

     total cpu time spent up to now is        9.8 secs

     total energy              =    -581.86723022 Ry
     estimated scf accuracy    <       0.00000260 Ry

     iteration # 11     ecut=    85.00 Ry     beta= 0.70
     Davidson diagonalization with overlap
     ethr =  6.50E-09,  avg # of iterations =  4.2

     total cpu time spent up to now is       10.0 secs

     total energy              =    -581.86723100 Ry
     estimated scf accuracy    <       0.00000214 Ry

     iteration # 12     ecut=    85.00 Ry     beta= 0.70
     Davidson diagonalization with overlap
     ethr =  5.35E-09,  avg # of iterations =  3.0

     total cpu time spent up to now is       10.1 secs

     total energy              =    -581.86723129 Ry
     estimated scf accuracy    <       0.00000003 Ry

     iteration # 13     ecut=    85.00 Ry     beta= 0.70
     Davidson diagonalization with overlap
     ethr =  7.26E-11,  avg # of iterations =  4.6

     total cpu time spent up to now is       10.4 secs

     total energy              =    -581.86723128 Ry
     estimated scf accuracy    <       0.00000020 Ry

     iteration # 14     ecut=    85.00 Ry     beta= 0.70
     Davidson diagonalization with overlap
     ethr =  7.26E-11,  avg # of iterations =  3.9

     total cpu time spent up to now is       10.6 secs

     total energy              =    -581.86723129 Ry
     estimated scf accuracy    <       0.00000003 Ry

     iteration # 15     ecut=    85.00 Ry     beta= 0.70
     Davidson diagonalization with overlap
     ethr =  7.26E-11,  avg # of iterations =  1.0

     total cpu time spent up to now is       10.7 secs

     total energy              =    -581.86723128 Ry
     estimated scf accuracy    <       0.00000002 Ry

     iteration # 16     ecut=    85.00 Ry     beta= 0.70
     Davidson diagonalization with overlap
     ethr =  4.26E-11,  avg # of iterations =  3.0

     total cpu time spent up to now is       10.9 secs

     total energy              =    -581.86723128 Ry
     estimated scf accuracy    <          2.1E-09 Ry

     iteration # 17     ecut=    85.00 Ry     beta= 0.70
     Davidson diagonalization with overlap
     ethr =  5.16E-12,  avg # of iterations =  3.9

     total cpu time spent up to now is       11.1 secs

     total energy              =    -581.86723129 Ry
     estimated scf accuracy    <          4.9E-09 Ry

     iteration # 18     ecut=    85.00 Ry     beta= 0.70
     Davidson diagonalization with overlap
     ethr =  5.16E-12,  avg # of iterations =  2.9

     total cpu time spent up to now is       11.2 secs

     total energy              =    -581.86723129 Ry
     estimated scf accuracy    <          6.4E-10 Ry

     iteration # 19     ecut=    85.00 Ry     beta= 0.70
     Davidson diagonalization with overlap
     ethr =  1.60E-12,  avg # of iterations =  2.6

     total cpu time spent up to now is       11.4 secs

     total energy              =    -581.86723129 Ry
     estimated scf accuracy    <          2.9E-10 Ry

     iteration # 20     ecut=    85.00 Ry     beta= 0.70
     Davidson diagonalization with overlap
     ethr =  7.20E-13,  avg # of iterations =  3.2

     total cpu time spent up to now is       11.6 secs

     End of self-consistent calculation

          k = 0.0000 0.0000 0.0000 ( 17037 PWs)   bands (ev):

   -72.8472 -72.8472 -44.2478 -44.2478 -34.5057 -34.5057 -34.4069 -34.4069
   -28.3466 -28.3466 -28.3389 -28.3389 -28.2908 -28.2908 -26.1177 -26.1177
   -26.1077 -26.1077 -26.0791 -26.0791 -26.0514 -26.0514 -13.6506 -13.6506
   -12.4237 -12.4237  -5.0860  -5.0860  -1.4438  -1.4438  -1.3364  -1.3364
    -1.0119  -1.0119  -0.4292  -0.4292  -0.0308  -0.0308   0.8018   0.8018

          k = 0.0000 0.0769 0.0000 ( 17040 PWs)   bands (ev):

   -72.8468 -72.8468 -44.2494 -44.2494 -34.5067 -34.5067 -34.4142 -34.4142
   -28.3466 -28.3466 -28.3389 -28.3389 -28.2909 -28.2909 -26.1176 -26.1176
   -26.1078 -26.1078 -26.0792 -26.0792 -26.0513 -26.0513 -13.5865 -13.5865
   -12.3913 -12.3913  -5.0027  -5.0027  -1.5832  -1.5831  -1.3821  -1.3821
    -1.1356  -1.1355  -0.4455  -0.4455  -0.0784  -0.0784   0.7743   0.7744

          k = 0.0000 0.1538 0.0000 ( 17030 PWs)   bands (ev):

   -72.8457 -72.8457 -44.2540 -44.2540 -34.5103 -34.5103 -34.4337 -34.4337
   -28.3466 -28.3466 -28.3389 -28.3389 -28.2909 -28.2909 -26.1173 -26.1173
   -26.1081 -26.1081 -26.0794 -26.0794 -26.0512 -26.0512 -13.3998 -13.3998
   -12.2971 -12.2971  -4.7639  -4.7639  -2.0710  -2.0710  -1.6659  -1.6659
    -1.0896  -1.0896  -0.6436  -0.6436  -0.1849  -0.1849   0.6596   0.6596

          k = 0.0000 0.2306 0.0000 ( 17022 PWs)   bands (ev):

   -72.8441 -72.8441 -44.2608 -44.2608 -34.5204 -34.5204 -34.4574 -34.4574
   -28.3467 -28.3467 -28.3389 -28.3389 -28.2910 -28.2910 -26.1169 -26.1169
   -26.1085 -26.1085 -26.0797 -26.0797 -26.0511 -26.0511 -13.1076 -13.1076
   -12.1503 -12.1503  -4.4120  -4.4120  -2.7326  -2.7326  -2.1411  -2.1411
    -1.0129  -1.0129  -0.8430  -0.8430  -0.3859  -0.3859   0.4083   0.4083

          k = 0.0000 0.3075 0.0000 ( 17036 PWs)   bands (ev):

   -72.8423 -72.8423 -44.2685 -44.2685 -34.5426 -34.5426 -34.4736 -34.4736
   -28.3468 -28.3468 -28.3389 -28.3389 -28.2910 -28.2910 -26.1165 -26.1165
   -26.1088 -26.1088 -26.0800 -26.0800 -26.0510 -26.0510 -12.7404 -12.7404
   -11.9682 -11.9682  -4.0981  -4.0981  -3.3459  -3.3459  -2.6963  -2.6963
    -1.3414  -1.3414  -0.7926  -0.7926  -0.4492  -0.4492   0.0959   0.0959

          k = 0.0000 0.3844 0.0000 ( 17078 PWs)   bands (ev):

   -72.8405 -72.8405 -44.2760 -44.2760 -34.5721 -34.5721 -34.4804 -34.4804
   -28.3468 -28.3468 -28.3389 -28.3389 -28.2911 -28.2911 -26.1162 -26.1162
   -26.1091 -26.1091 -26.0803 -26.0803 -26.0508 -26.0508 -12.3470 -12.3470
   -11.7775 -11.7775  -4.3689  -4.3689  -3.3876  -3.3876  -3.2453  -3.2453
    -1.6326  -1.6326  -0.9497  -0.9497  -0.3177  -0.3177  -0.0273  -0.0273

          k = 0.0000 0.4613 0.0000 ( 17046 PWs)   bands (ev):

   -72.8391 -72.8391 -44.2818 -44.2818 -34.5977 -34.5977 -34.4830 -34.4830
   -28.3469 -28.3469 -28.3388 -28.3388 -28.2911 -28.2911 -26.1159 -26.1159
   -26.1093 -26.1093 -26.0806 -26.0806 -26.0507 -26.0507 -11.9990 -11.9990
   -11.6149 -11.6149  -4.8734  -4.8734  -3.7129  -3.7129  -3.1937  -3.1937
    -1.8383  -1.8382  -1.0631  -1.0631  -0.2225  -0.2225   0.0917   0.0917

          k = 0.0000 0.5382 0.0000 ( 17096 PWs)   bands (ev):

   -72.8383 -72.8383 -44.2850 -44.2850 -34.6121 -34.6121 -34.4838 -34.4838
   -28.3469 -28.3469 -28.3388 -28.3388 -28.2912 -28.2912 -26.1159 -26.1159
   -26.1093 -26.1093 -26.0807 -26.0807 -26.0506 -26.0506 -11.7875 -11.7875
   -11.5203 -11.5203  -5.1823  -5.1823  -3.9653  -3.9653  -3.1261  -3.1261
    -1.9436  -1.9436  -1.1148  -1.1148  -0.0987  -0.0987   0.2023   0.2023

          k = 0.0666 0.1153 0.0000 ( 17029 PWs)   bands (ev):

   -72.8461 -72.8461 -44.2526 -44.2525 -34.5090 -34.5087 -34.4281 -34.4272
   -28.3466 -28.3466 -28.3389 -28.3389 -28.2909 -28.2909 -26.1174 -26.1174
   -26.1080 -26.1080 -26.0793 -26.0793 -26.0513 -26.0513 -13.4623 -13.4599
   -12.3281 -12.3278  -4.8421  -4.8403  -1.9251  -1.8976  -1.5680  -1.5288
    -1.1821  -1.0862  -0.6728  -0.5737  -0.1799  -0.0285   0.7044   0.7045

          k = 0.0666 0.1922 0.0000 ( 17015 PWs)   bands (ev):

   -72.8447 -72.8447 -44.2584 -44.2580 -34.5156 -34.5149 -34.4509 -34.4486
   -28.3467 -28.3467 -28.3389 -28.3389 -28.2910 -28.2909 -26.1171 -26.1170
   -26.1084 -26.1083 -26.0796 -26.0795 -26.0512 -26.0512 -13.2249 -13.2179
   -12.2077 -12.2068  -4.5438  -4.5380  -2.4929  -2.4604  -1.9163  -1.9101
    -1.0841  -1.0338  -1.0318  -0.8746  -0.2524  -0.0659   0.5089   0.5407

          k = 0.0666 0.2691 0.0000 ( 17041 PWs)   bands (ev):

   -72.8430 -72.8430 -44.2659 -44.2651 -34.5311 -34.5310 -34.4715 -34.4686
   -28.3468 -28.3467 -28.3390 -28.3388 -28.2910 -28.2910 -26.1168 -26.1165
   -26.1088 -26.1086 -26.0799 -26.0799 -26.0510 -26.0510 -12.8978 -12.8838
   -12.0429 -12.0411  -4.1802  -4.1654  -3.1253  -3.1105  -2.4121  -2.3916
    -1.4665  -1.4506  -0.8944  -0.6813  -0.4294  -0.2543   0.1992   0.3230

          k = 0.0666 0.3460 0.0000 ( 17072 PWs)   bands (ev):

   -72.8412 -72.8412 -44.2737 -44.2725 -34.5587 -34.5564 -34.4819 -34.4799
   -28.3469 -28.3468 -28.3390 -28.3388 -28.2911 -28.2911 -26.1164 -26.1161
   -26.1091 -26.1089 -26.0802 -26.0802 -26.0509 -26.0508 -12.5194 -12.4968
   -11.8552 -11.8524  -4.1114  -4.0920  -3.4548  -3.4518  -2.9877  -2.9599
    -1.7438  -1.7344  -0.8899  -0.7304  -0.5013  -0.4884  -0.0067   0.2361

          k = 0.0666 0.4229 0.0000 ( 17076 PWs)   bands (ev):

   -72.8396 -72.8396 -44.2805 -44.2789 -34.5875 -34.5832 -34.4859 -34.4847
   -28.3469 -28.3468 -28.3390 -28.3387 -28.2911 -28.2911 -26.1162 -26.1158
   -26.1093 -26.1091 -26.0805 -26.0804 -26.0508 -26.0507 -12.1486 -12.1165
   -11.6761 -11.6726  -4.5944  -4.5863  -3.5234  -3.5001  -3.2531  -3.2415
    -1.9170  -1.8978  -0.9865  -0.9359  -0.6351  -0.5049   0.0474   0.3322

          k = 0.0666 0.4997 0.0000 ( 17070 PWs)   bands (ev):

   -72.8385 -72.8385 -44.2851 -44.2833 -34.6081 -34.6025 -34.4874 -34.4867
   -28.3470 -28.3469 -28.3390 -28.3387 -28.2912 -28.2911 -26.1161 -26.1156
   -26.1094 -26.1092 -26.0807 -26.0806 -26.0507 -26.0506 -11.8662 -11.8262
   -11.5447 -11.5409  -5.0181  -4.9917  -3.8873  -3.8669  -3.1368  -3.1136
    -2.0077  -1.9849  -1.0856  -1.0759  -0.6242  -0.4247   0.1663   0.4854

          k = 0.0666 0.5766 0.0000 ( 17080 PWs)   bands (ev):

   -72.8382 -72.8381 -44.2867 -44.2849 -34.6155 -34.6094 -34.4877 -34.4873
   -28.3470 -28.3469 -28.3390 -28.3387 -28.2912 -28.2911 -26.1161 -26.1156
   -26.1095 -26.1092 -26.0808 -26.0807 -26.0506 -26.0506 -11.7584 -11.7152
   -11.4962 -11.4924  -5.1773  -5.1441  -4.0181  -3.9991  -3.1120  -3.0850
    -2.0359  -2.0121  -1.1264  -1.1241  -0.5907  -0.3688   0.2296   0.5663

          k = 0.1332 0.2306 0.0000 ( 17019 PWs)   bands (ev):

   -72.8433 -72.8433 -44.2649 -44.2638 -34.5267 -34.5264 -34.4714 -34.4671
   -28.3468 -28.3467 -28.3390 -28.3388 -28.2910 -28.2910 -26.1169 -26.1166
   -26.1087 -26.1086 -26.0799 -26.0798 -26.0511 -26.0510 -12.9520 -12.9334
   -12.0686 -12.0662  -4.2158  -4.1966  -3.0214  -2.9925  -2.2303  -2.1921
    -1.6451  -1.6441  -1.0114  -0.7553  -0.2748  -0.0448   0.2727   0.4054

          k = 0.1332 0.3075 0.0000 ( 17040 PWs)   bands (ev):

   -72.8416 -72.8416 -44.2724 -44.2705 -34.5486 -34.5457 -34.4856 -34.4818
   -28.3469 -28.3468 -28.3390 -28.3387 -28.2911 -28.2910 -26.1166 -26.1161
   -26.1091 -26.1088 -26.0802 -26.0801 -26.0509 -26.0509 -12.6111 -12.5770
   -11.8962 -11.8920  -3.9435  -3.8851  -3.4821  -3.4594  -2.7293  -2.6503
    -2.0664  -2.0039  -1.1250  -0.8096  -0.4409  -0.2412   0.1201   0.3764

          k = 0.1332 0.3844 0.0000 ( 17061 PWs)   bands (ev):

   -72.8399 -72.8399 -44.2795 -44.2770 -34.5762 -34.5689 -34.4924 -34.4905
   -28.3469 -28.3468 -28.3391 -28.3386 -28.2912 -28.2911 -26.1164 -26.1157
   -26.1094 -26.1090 -26.0805 -26.0804 -26.0508 -26.0507 -12.2492 -12.1969
   -11.7160 -11.7100  -4.2570  -4.2472  -3.3364  -3.3232  -3.2823  -3.2378
    -2.1947  -2.1316  -1.3159  -1.0362  -0.6813  -0.5445   0.1424   0.4487

          k = 0.1332 0.4613 0.0000 ( 17070 PWs)   bands (ev):

   -72.8387 -72.8387 -44.2851 -44.2820 -34.5997 -34.5890 -34.4957 -34.4951
   -28.3470 -28.3468 -28.3391 -28.3386 -28.2912 -28.2911 -26.1163 -26.1155
   -26.1095 -26.1091 -26.0807 -26.0806 -26.0507 -26.0506 -11.9330 -11.8631
   -11.5625 -11.5554  -4.7036  -4.6676  -3.7788  -3.7311  -3.1221  -3.0894
    -2.2130  -2.1546  -1.4199  -1.1820  -0.9062  -0.8239   0.2537   0.5853

          k = 0.1332 0.5382 0.0000 ( 17057 PWs)   bands (ev):

   -72.8380 -72.8380 -44.2882 -44.2848 -34.6128 -34.6004 -34.4972 -34.4970
   -28.3470 -28.3469 -28.3391 -28.3385 -28.2912 -28.2911 -26.1163 -26.1153
   -26.1096 -26.1091 -26.0809 -26.0807 -26.0507 -26.0505 -11.7431 -11.6620
   -11.4730 -11.4660  -4.9743  -4.9119  -4.0343  -3.9940  -3.0718  -3.0240
    -2.1941  -2.1368  -1.4323  -1.2398  -1.0144  -0.9895   0.3789   0.7319

          k = 0.1997 0.3460 0.0000 ( 17045 PWs)   bands (ev):

   -72.8401 -72.8401 -44.2792 -44.2763 -34.5707 -34.5623 -34.4962 -34.4940
   -28.3470 -28.3468 -28.3391 -28.3386 -28.2912 -28.2911 -26.1165 -26.1157
   -26.1094 -26.1090 -26.0805 -26.0803 -26.0508 -26.0507 -12.2845 -12.2253
   -11.7298 -11.7229  -4.0889  -4.0540  -3.3637  -3.3473  -3.1961  -3.0986
    -2.3726  -2.2677  -1.5267  -1.2508  -0.5764  -0.4298   0.1712   0.4826

          k = 0.1997 0.4229 0.0000 ( 17050 PWs)   bands (ev):

   -72.8388 -72.8388 -44.2851 -44.2813 -34.5921 -34.5777 -34.5037 -34.5032
   -28.3470 -28.3468 -28.3391 -28.3385 -28.2912 -28.2911 -26.1164 -26.1154
   -26.1096 -26.1091 -26.0807 -26.0805 -26.0507 -26.0506 -11.9712 -11.8855
   -11.5717 -11.5628  -4.3968  -4.3726  -3.6897  -3.6115  -3.0981  -3.0780
    -2.4069  -2.3179  -1.8953  -1.6890  -0.8130  -0.7283   0.2750   0.6101

          k = 0.1997 0.4997 0.0000 ( 17040 PWs)   bands (ev):

   -72.8379 -72.8379 -44.2892 -44.2847 -34.6072 -34.5886 -34.5098 -34.5073
   -28.3471 -28.3469 -28.3392 -28.3385 -28.2913 -28.2911 -26.1164 -26.1152
   -26.1097 -26.1091 -26.0809 -26.0807 -26.0507 -26.0505 -11.7383 -11.6315
   -11.4561 -11.4467  -4.6484  -4.5727  -4.0312  -3.9686  -3.0106  -2.9673
    -2.3497  -2.3124  -2.0334  -1.9308  -1.0411  -1.0115   0.4453   0.8068

          k = 0.1997 0.5766 0.0000 ( 17020 PWs)   bands (ev):

   -72.8376 -72.8376 -44.2906 -44.2859 -34.6126 -34.5925 -34.5119 -34.5086
   -28.3471 -28.3469 -28.3392 -28.3384 -28.2913 -28.2911 -26.1165 -26.1151
   -26.1097 -26.1091 -26.0810 -26.0807 -26.0506 -26.0505 -11.6508 -11.5360
   -11.4134 -11.4044  -4.7418  -4.6443  -4.1526  -4.0953  -3.0183  -2.9699
    -2.3066  -2.3024  -2.0282  -1.9904  -1.1386  -1.1366   0.5488   0.9288

          k = 0.2663 0.4613 0.0000 ( 17055 PWs)   bands (ev):

   -72.8378 -72.8378 -44.2895 -44.2846 -34.6042 -34.5823 -34.5164 -34.5120
   -28.3471 -28.3469 -28.3392 -28.3384 -28.2913 -28.2911 -26.1165 -26.1151
   -26.1097 -26.1091 -26.0809 -26.0807 -26.0507 -26.0505 -11.7377 -11.6219
   -11.4499 -11.4397  -4.4507  -4.3789  -4.0289  -3.9540  -2.9533  -2.9419
    -2.5250  -2.4366  -2.2812  -2.1984  -1.0252  -1.0044   0.4660   0.8312

          k = 0.2663 0.5382 0.0000 ( 17018 PWs)   bands (ev):

   -72.8373 -72.8373 -44.2919 -44.2865 -34.6106 -34.5836 -34.5245 -34.5169
   -28.3471 -28.3469 -28.3393 -28.3384 -28.2913 -28.2911 -26.1165 -26.1150
   -26.1098 -26.1090 -26.0810 -26.0808 -26.0506 -26.0505 -11.6021 -11.4686
   -11.3793 -11.3695  -4.4281  -4.3138  -4.2229  -4.1492  -3.0925  -3.0159
    -2.6347  -2.5959  -2.3500  -2.1365  -1.2323  -1.1942   0.6748   1.0892

          k = 0.3329 0.5766 0.0000 ( 17025 PWs)   bands (ev):

   -72.8371 -72.8371 -44.2929 -44.2871 -34.6115 -34.5800 -34.5316 -34.5207
   -28.3472 -28.3469 -28.3393 -28.3384 -28.2913 -28.2911 -26.1166 -26.1150
   -26.1098 -26.1090 -26.0811 -26.0808 -26.0506 -26.0505 -11.5531 -11.4099
   -11.3510 -11.3416  -4.2951  -4.2395  -4.2282  -4.0633  -3.3822  -3.2334
    -2.7508  -2.6718  -2.3351  -2.0954  -1.3438  -1.2655   0.8043   1.2717

     highest occupied level (ev):     1.2717

!    total energy              =    -581.86723129 Ry
     estimated scf accuracy    <          2.7E-11 Ry

     The total energy is the sum of the following terms:
     one-electron contribution =   -2753.02357858 Ry
     hartree contribution      =    1379.28092940 Ry
     xc contribution           =     -50.86015060 Ry
     ewald contribution        =     842.73556850 Ry

     convergence has been achieved in  20 iterations

     Forces acting on atoms (cartesian axes, Ry/au):

     atom    1 type  1   force =     0.00000000    0.00000000   -0.00000847
     atom    2 type  2   force =     0.00000000   -0.00000000    0.00225254
     atom    3 type  2   force =     0.00000000   -0.00000000   -0.00224407
     The non-local contrib.  to forces
     atom    1 type  1   force =     0.00000000    0.00000000    0.00004382
     atom    2 type  2   force =     0.00000000    0.00000000   -0.36131587
     atom    3 type  2   force =     0.00000000    0.00000000    0.36133299
     The ionic contribution  to forces
     atom    1 type  1   force =     0.00000046   -0.00000026    0.00013026
     atom    2 type  2   force =    -0.00000023    0.00000013   56.01572635
     atom    3 type  2   force =    -0.00000023    0.00000013  -56.01585660
     The local contribution  to forces
     atom    1 type  1   force =     0.00000076   -0.00002678   -0.00024552
     atom    2 type  2   force =     0.00000005    0.00000003  -55.65215268
     atom    3 type  2   force =     0.00000005    0.00000003   55.65228437
     The core correction contribution to forces
     atom    1 type  1   force =     0.00000000    0.00000000    0.00000000
     atom    2 type  2   force =     0.00000000    0.00000000    0.00000000
     atom    3 type  2   force =     0.00000000    0.00000000    0.00000000
     The Hubbard contrib.    to forces
     atom    1 type  1   force =     0.00000000    0.00000000    0.00000000
     atom    2 type  2   force =     0.00000000    0.00000000    0.00000000
     atom    3 type  2   force =     0.00000000    0.00000000    0.00000000
     The SCF correction term to forces
     atom    1 type  1   force =    -0.00000000   -0.00000000    0.00007426
     atom    2 type  2   force =    -0.00000000   -0.00000000    0.00000602
     atom    3 type  2   force =     0.00000000    0.00000000    0.00000646

     Total force =     0.003180     Total SCF correction =     0.000075


     Computing stress (Cartesian axis) and pressure

          total   stress  (Ry/bohr**3)                   (kbar)     P=        0.57
   0.00000031   0.00000000   0.00000000            0.05        0.00        0.00
   0.00000000   0.00000031   0.00000000            0.00        0.05        0.00
   0.00000000   0.00000000   0.00001108            0.00        0.00        1.63

     Energy error            =      1.6E-04 Ry
     Gradient error          =      2.3E-03 Ry/Bohr
     Cell gradient error     =      4.5E-02 kbar

     number of scf cycles    =   3
     number of bfgs steps    =   2

     enthalpy           old  =    -581.8670760861 Ry
     enthalpy           new  =    -581.8672312858 Ry

     CASE: enthalpy          _new < enthalpy          _old

     new trust radius        =       0.0055024584 bohr
ibrav =      4
 celldm(1) =      6.28242967
 celldm(3) =      6.01590857
Input lattice vectors:
     1.00138125     0.00000000     0.00000000
    -0.50069063     0.86722161     0.00000000
     0.00000000     0.00000000     6.02421807
New lattice vectors in INITIAL alat:
     1.00138125     0.00000000     0.00000000
    -0.50069063     0.86722161     0.00000000
     0.00000000     0.00000000     6.02421807
New lattice vectors in NEW alat (for information only):
     1.00000000     0.00000000     0.00000000
    -0.50000000     0.86602540     0.00000000
     0.00000000     0.00000000     6.01590857
Discrepancy in bohr =     0.000000    0.000000    0.000000
     new conv_thr            =            1.0E-10 Ry

     new unit-cell volume =   1291.85796 a.u.^3 (   191.43360 Ang^3 )
     density =      2.96450 g/cm^3

CELL_PARAMETERS (alat=  6.27376400)
   1.001381254   0.000000000   0.000000000
  -0.500690627   0.867221605   0.000000000
   0.000000000   0.000000000   6.024218072

ATOMIC_POSITIONS (crystal)
W             0.3333333430        0.6666666870        0.1717155229
Se            0.6666666870        0.3333333430        0.2556964097
Se            0.6666666870        0.3333333430        0.0877326084



     Writing config-only to output data dir ./WSe2.save/
     NEW-OLD atomic charge density approx. for the potential
     extrapolated charge   40.00924, renormalised to   40.00000

     total cpu time spent up to now is       11.9 secs

     Self-consistent Calculation

     iteration #  1     ecut=    85.00 Ry     beta= 0.70
     Davidson diagonalization with overlap
     ethr =  1.00E-06,  avg # of iterations =  4.4

     total cpu time spent up to now is       12.2 secs

     total energy              =    -581.86600401 Ry
     estimated scf accuracy    <       0.00121501 Ry

     iteration #  2     ecut=    85.00 Ry     beta= 0.70
     Davidson diagonalization with overlap
     ethr =  3.04E-06,  avg # of iterations =  4.3

     total cpu time spent up to now is       12.4 secs

     total energy              =    -581.86513233 Ry
     estimated scf accuracy    <       0.02647655 Ry

     iteration #  3     ecut=    85.00 Ry     beta= 0.70
     Davidson diagonalization with overlap
     ethr =  3.04E-06,  avg # of iterations =  4.1

     total cpu time spent up to now is       12.6 secs

     total energy              =    -581.86727117 Ry
     estimated scf accuracy    <       0.00072918 Ry

     iteration #  4     ecut=    85.00 Ry     beta= 0.70
     Davidson diagonalization with overlap
     ethr =  1.82E-06,  avg # of iterations =  1.0

     total cpu time spent up to now is       12.7 secs

     total energy              =    -581.86723541 Ry
     estimated scf accuracy    <       0.00040540 Ry

     iteration #  5     ecut=    85.00 Ry     beta= 0.70
     Davidson diagonalization with overlap
     ethr =  1.01E-06,  avg # of iterations =  2.3

     total cpu time spent up to now is       12.9 secs

     total energy              =    -581.86724229 Ry
     estimated scf accuracy    <       0.00010211 Ry

     iteration #  6     ecut=    85.00 Ry     beta= 0.70
     Davidson diagonalization with overlap
     ethr =  2.55E-07,  avg # of iterations =  2.7

     total cpu time spent up to now is       13.0 secs

     total energy              =    -581.86724381 Ry
     estimated scf accuracy    <       0.00004185 Ry

     iteration #  7     ecut=    85.00 Ry     beta= 0.70
     Davidson diagonalization with overlap
     ethr =  1.05E-07,  avg # of iterations =  2.6

     total cpu time spent up to now is       13.2 secs

     total energy              =    -581.86724235 Ry
     estimated scf accuracy    <       0.00001353 Ry

     iteration #  8     ecut=    85.00 Ry     beta= 0.70
     Davidson diagonalization with overlap
     ethr =  3.38E-08,  avg # of iterations =  3.4

     total cpu time spent up to now is       13.4 secs

     total energy              =    -581.86724448 Ry
     estimated scf accuracy    <       0.00000022 Ry

     iteration #  9     ecut=    85.00 Ry     beta= 0.70
     Davidson diagonalization with overlap
     ethr =  5.43E-10,  avg # of iterations =  2.9

     total cpu time spent up to now is       13.6 secs

     total energy              =    -581.86724452 Ry
     estimated scf accuracy    <       0.00000010 Ry

     iteration # 10     ecut=    85.00 Ry     beta= 0.70
     Davidson diagonalization with overlap
     ethr =  2.60E-10,  avg # of iterations =  2.5

     total cpu time spent up to now is       13.7 secs

     total energy              =    -581.86724449 Ry
     estimated scf accuracy    <       0.00000030 Ry

     iteration # 11     ecut=    85.00 Ry     beta= 0.70
     Davidson diagonalization with overlap
     ethr =  2.60E-10,  avg # of iterations =  2.6

     total cpu time spent up to now is       13.9 secs

     total energy              =    -581.86724448 Ry
     estimated scf accuracy    <       0.00000008 Ry

     iteration # 12     ecut=    85.00 Ry     beta= 0.70
     Davidson diagonalization with overlap
     ethr =  2.01E-10,  avg # of iterations =  3.0

     total cpu time spent up to now is       14.1 secs

     total energy              =    -581.86724449 Ry
     estimated scf accuracy    <          9.7E-10 Ry

     iteration # 13     ecut=    85.00 Ry     beta= 0.70
     Davidson diagonalization with overlap
     ethr =  2.43E-12,  avg # of iterations =  4.4

     total cpu time spent up to now is       14.3 secs

     total energy              =    -581.86724449 Ry
     estimated scf accuracy    <          8.2E-10 Ry

     iteration # 14     ecut=    85.00 Ry     beta= 0.70
     Davidson diagonalization with overlap
     ethr =  2.06E-12,  avg # of iterations =  1.3

     total cpu time spent up to now is       14.4 secs

     total energy              =    -581.86724449 Ry
     estimated scf accuracy    <          6.7E-10 Ry

     iteration # 15     ecut=    85.00 Ry     beta= 0.70
     Davidson diagonalization with overlap
     ethr =  1.68E-12,  avg # of iterations =  3.0

     total cpu time spent up to now is       14.6 secs

     total energy              =    -581.86724449 Ry
     estimated scf accuracy    <          2.8E-10 Ry

     iteration # 16     ecut=    85.00 Ry     beta= 0.70
     Davidson diagonalization with overlap
     ethr =  7.02E-13,  avg # of iterations =  2.4

     total cpu time spent up to now is       14.8 secs

     End of self-consistent calculation

          k = 0.0000 0.0000 0.0000 ( 17037 PWs)   bands (ev):

   -72.8493 -72.8493 -44.2491 -44.2491 -34.5062 -34.5062 -34.4071 -34.4071
   -28.3474 -28.3474 -28.3403 -28.3403 -28.2926 -28.2926 -26.1188 -26.1188
   -26.1085 -26.1085 -26.0807 -26.0807 -26.0532 -26.0532 -13.6389 -13.6389
   -12.4216 -12.4216  -5.0798  -5.0798  -1.4291  -1.4291  -1.3283  -1.3283
    -1.0101  -1.0101  -0.4193  -0.4193  -0.0198  -0.0198   0.7959   0.7959

[...]

     total cpu time spent up to now is       40.0 secs

     total energy              =    -581.86697538 Ry
     estimated scf accuracy    <       0.00163665 Ry

     iteration #  5     ecut=    85.00 Ry     beta= 0.70
     Davidson diagonalization with overlap
     ethr =  4.09E-06,  avg # of iterations =  3.4

     total cpu time spent up to now is       40.2 secs

     total energy              =    -581.86722786 Ry
     estimated scf accuracy    <       0.00005006 Ry

     iteration #  6     ecut=    85.00 Ry     beta= 0.70
     Davidson diagonalization with overlap
     ethr =  1.25E-07,  avg # of iterations =  4.2

     total cpu time spent up to now is       40.4 secs

     total energy              =    -581.86724661 Ry
     estimated scf accuracy    <       0.00000853 Ry

     iteration #  7     ecut=    85.00 Ry     beta= 0.70
     Davidson diagonalization with overlap
     ethr =  2.13E-08,  avg # of iterations =  3.7

     total cpu time spent up to now is       40.6 secs

     total energy              =    -581.86724780 Ry
     estimated scf accuracy    <       0.00001877 Ry

     iteration #  8     ecut=    85.00 Ry     beta= 0.70
     Davidson diagonalization with overlap
     ethr =  2.13E-08,  avg # of iterations =  3.0

     total cpu time spent up to now is       40.8 secs

     total energy              =    -581.86724958 Ry
     estimated scf accuracy    <       0.00000004 Ry

     iteration #  9     ecut=    85.00 Ry     beta= 0.70
     Davidson diagonalization with overlap
     ethr =  8.75E-11,  avg # of iterations =  4.3

     total cpu time spent up to now is       41.0 secs

     total energy              =    -581.86724961 Ry
     estimated scf accuracy    <          8.5E-09 Ry

     iteration # 10     ecut=    85.00 Ry     beta= 0.70
     Davidson diagonalization with overlap
     ethr =  2.13E-11,  avg # of iterations =  2.0

     total cpu time spent up to now is       41.2 secs

     total energy              =    -581.86724961 Ry
     estimated scf accuracy    <          1.1E-09 Ry

     iteration # 11     ecut=    85.00 Ry     beta= 0.70
     Davidson diagonalization with overlap
     ethr =  2.83E-12,  avg # of iterations =  3.1

     total cpu time spent up to now is       41.3 secs

     total energy              =    -581.86724961 Ry
     estimated scf accuracy    <          5.0E-11 Ry

     iteration # 12     ecut=    85.00 Ry     beta= 0.70
     Davidson diagonalization with overlap
     ethr =  1.24E-13,  avg # of iterations =  2.7

     total cpu time spent up to now is       41.5 secs

     total energy              =    -581.86724961 Ry
     estimated scf accuracy    <          3.5E-12 Ry

     iteration # 13     ecut=    85.00 Ry     beta= 0.70
     Davidson diagonalization with overlap
     ethr =  1.00E-13,  avg # of iterations =  1.1

     total cpu time spent up to now is       41.7 secs

     End of self-consistent calculation

          k = 0.0000 0.0000 0.0000 ( 17037 PWs)   bands (ev):

   -72.8335 -72.8335 -44.2332 -44.2332 -34.4914 -34.4914 -34.3902 -34.3902
   -28.3310 -28.3310 -28.3248 -28.3248 -28.2776 -28.2776 -26.1030 -26.1030
   -26.0920 -26.0920 -26.0654 -26.0654 -26.0382 -26.0382 -13.6322 -13.6322
   -12.4173 -12.4173  -5.0749  -5.0749  -1.4083  -1.4083  -1.3142  -1.3142
    -1.0007  -1.0007  -0.3982  -0.3982   0.0028   0.0028   0.7994   0.7994

          k = 0.0000 0.0769 0.0000 ( 17066 PWs)   bands (ev):

   -72.8331 -72.8331 -44.2349 -44.2349 -34.4923 -34.4923 -34.3975 -34.3975
   -28.3310 -28.3310 -28.3248 -28.3248 -28.2776 -28.2776 -26.1029 -26.1029
   -26.0921 -26.0921 -26.0655 -26.0655 -26.0382 -26.0382 -13.5680 -13.5680
   -12.3846 -12.3846  -4.9913  -4.9913  -1.5494  -1.5494  -1.3654  -1.3654
    -1.1112  -1.1112  -0.4176  -0.4175  -0.0494  -0.0494   0.7728   0.7728

          k = 0.0000 0.1539 0.0000 ( 17050 PWs)   bands (ev):

   -72.8320 -72.8320 -44.2395 -44.2395 -34.4959 -34.4959 -34.4172 -34.4172
   -28.3311 -28.3311 -28.3248 -28.3248 -28.2777 -28.2777 -26.1026 -26.1026
   -26.0924 -26.0924 -26.0657 -26.0657 -26.0381 -26.0381 -13.3810 -13.3810
   -12.2894 -12.2894  -4.7515  -4.7515  -2.0376  -2.0376  -1.6551  -1.6551
    -1.0533  -1.0533  -0.6142  -0.6142  -0.1679  -0.1679   0.6610   0.6610

          k = 0.0000 0.2308 0.0000 ( 17038 PWs)   bands (ev):

   -72.8304 -72.8304 -44.2463 -44.2463 -34.5059 -34.5059 -34.4412 -34.4412
   -28.3311 -28.3311 -28.3247 -28.3247 -28.2778 -28.2778 -26.1022 -26.1022
   -26.0927 -26.0927 -26.0660 -26.0660 -26.0379 -26.0379 -13.0881 -13.0880
   -12.1411 -12.1411  -4.3978  -4.3978  -2.7021  -2.7021  -2.1268  -2.1268
    -0.9816  -0.9816  -0.8101  -0.8100  -0.3761  -0.3761   0.4142   0.4142

          k = 0.0000 0.3078 0.0000 ( 17072 PWs)   bands (ev):

   -72.8285 -72.8285 -44.2541 -44.2541 -34.5278 -34.5278 -34.4580 -34.4580
   -28.3312 -28.3312 -28.3247 -28.3247 -28.2778 -28.2778 -26.1018 -26.1018
   -26.0931 -26.0931 -26.0663 -26.0663 -26.0378 -26.0378 -12.7199 -12.7199
   -11.9570 -11.9570  -4.0797  -4.0797  -3.3218  -3.3218  -2.6816  -2.6816
    -1.3113  -1.3112  -0.7823  -0.7823  -0.4228  -0.4228   0.1063   0.1063

          k = 0.0000 0.3847 0.0000 ( 17090 PWs)   bands (ev):

   -72.8267 -72.8267 -44.2616 -44.2616 -34.5571 -34.5571 -34.4652 -34.4652
   -28.3313 -28.3313 -28.3247 -28.3247 -28.2779 -28.2779 -26.1015 -26.1015
   -26.0934 -26.0934 -26.0666 -26.0666 -26.0376 -26.0376 -12.3251 -12.3251
   -11.7641 -11.7641  -4.3466  -4.3466  -3.3704  -3.3704  -3.2323  -3.2323
    -1.6028  -1.6028  -0.9478  -0.9477  -0.2949  -0.2949  -0.0067  -0.0067

          k = 0.0000 0.4617 0.0000 ( 17066 PWs)   bands (ev):

   -72.8253 -72.8253 -44.2674 -44.2674 -34.5827 -34.5827 -34.4679 -34.4679
   -28.3313 -28.3313 -28.3247 -28.3247 -28.2779 -28.2779 -26.1013 -26.1013
   -26.0935 -26.0935 -26.0669 -26.0669 -26.0375 -26.0375 -11.9756 -11.9756
   -11.5995 -11.5995  -4.8544  -4.8544  -3.7028  -3.7028  -3.1759  -3.1759
    -1.8088  -1.8088  -1.0624  -1.0624  -0.2046  -0.2046   0.1164   0.1164

          k = 0.0000 0.5386 0.0000 ( 17116 PWs)   bands (ev):

   -72.8245 -72.8245 -44.2707 -44.2707 -34.5971 -34.5971 -34.4688 -34.4688
   -28.3313 -28.3313 -28.3247 -28.3247 -28.2780 -28.2780 -26.1012 -26.1012
   -26.0936 -26.0936 -26.0670 -26.0670 -26.0374 -26.0374 -11.7631 -11.7631
   -11.5036 -11.5035  -5.1658  -5.1658  -3.9569  -3.9569  -3.1078  -3.1078
    -1.9143  -1.9143  -1.1144  -1.1144  -0.0797  -0.0797   0.2244   0.2244

          k = 0.0666 0.1154 0.0000 ( 17037 PWs)   bands (ev):

   -72.8324 -72.8324 -44.2381 -44.2379 -34.4946 -34.4943 -34.4115 -34.4107
   -28.3311 -28.3310 -28.3248 -28.3248 -28.2777 -28.2777 -26.1027 -26.1026
   -26.0923 -26.0923 -26.0656 -26.0656 -26.0381 -26.0381 -13.4435 -13.4412
   -12.3208 -12.3204  -4.8300  -4.8282  -1.8909  -1.8645  -1.5582  -1.5192
    -1.1458  -1.0510  -0.6449  -0.5431  -0.1615  -0.0067   0.7047   0.7052

          k = 0.0666 0.1924 0.0000 ( 17033 PWs)   bands (ev):

   -72.8310 -72.8310 -44.2439 -44.2435 -34.5012 -34.5005 -34.4346 -34.4323
   -28.3311 -28.3311 -28.3248 -28.3247 -28.2777 -28.2777 -26.1024 -26.1023
   -26.0927 -26.0926 -26.0659 -26.0659 -26.0380 -26.0380 -13.2056 -13.1986
   -12.1991 -12.1982  -4.5303  -4.5245  -2.4608  -2.4286  -1.9038  -1.8971
    -1.0567  -1.0038  -0.9980  -0.8388  -0.2412  -0.0503   0.5135   0.5450

          k = 0.0666 0.2693 0.0000 ( 17056 PWs)   bands (ev):

   -72.8293 -72.8292 -44.2514 -44.2506 -34.5163 -34.5163 -34.4557 -34.4528
   -28.3312 -28.3312 -28.3248 -28.3247 -28.2778 -28.2778 -26.1021 -26.1018
   -26.0930 -26.0929 -26.0662 -26.0662 -26.0379 -26.0378 -12.8776 -12.8638
   -12.0325 -12.0307  -4.1641  -4.1495  -3.0976  -3.0827  -2.3964  -2.3766
    -1.4432  -1.4247  -0.8639  -0.6474  -0.4206  -0.2420   0.2080   0.3338

          k = 0.0666 0.3462 0.0000 ( 17102 PWs)   bands (ev):

   -72.8274 -72.8274 -44.2592 -44.2581 -34.5437 -34.5415 -34.4666 -34.4645
   -28.3313 -28.3312 -28.3248 -28.3246 -28.2779 -28.2778 -26.1018 -26.1014
   -26.0933 -26.0932 -26.0666 -26.0665 -26.0377 -26.0377 -12.4980 -12.4756
   -11.8427 -11.8399  -4.0886  -4.0693  -3.4361  -3.4333  -2.9727  -2.9454
    -1.7191  -1.7117  -0.8697  -0.7220  -0.4768  -0.4761   0.0096   0.2548

          k = 0.0666 0.4232 0.0000 ( 17098 PWs)   bands (ev):

   -72.8258 -72.8258 -44.2661 -44.2646 -34.5724 -34.5682 -34.4708 -34.4696
   -28.3313 -28.3313 -28.3248 -28.3246 -28.2779 -28.2779 -26.1016 -26.1011
   -26.0936 -26.0934 -26.0668 -26.0668 -26.0376 -26.0375 -12.1257 -12.0939
   -11.6615 -11.6579  -4.5736  -4.5655  -3.5107  -3.4877  -3.2359  -3.2239
    -1.8915  -1.8739  -0.9763  -0.9324  -0.6196  -0.4849   0.0693   0.3537

          k = 0.0666 0.5001 0.0000 ( 17086 PWs)   bands (ev):

   -72.8247 -72.8247 -44.2707 -44.2690 -34.5930 -34.5875 -34.4724 -34.4717
   -28.3314 -28.3313 -28.3248 -28.3245 -28.2780 -28.2779 -26.1015 -26.1010
   -26.0937 -26.0934 -26.0670 -26.0669 -26.0375 -26.0374 -11.8420 -11.8023
   -11.5284 -11.5245  -5.0005  -4.9742  -3.8770  -3.8569  -3.1186  -3.0951
    -1.9809  -1.9595  -1.0812  -1.0745  -0.6058  -0.4053   0.1872   0.5057

          k = 0.0666 0.5771 0.0000 ( 17080 PWs)   bands (ev):

   -72.8243 -72.8243 -44.2724 -44.2706 -34.6004 -34.5944 -34.4729 -34.4723
   -28.3314 -28.3313 -28.3248 -28.3245 -28.2780 -28.2779 -26.1014 -26.1009
   -26.0937 -26.0935 -26.0671 -26.0670 -26.0375 -26.0374 -11.7336 -11.6907
   -11.4792 -11.4754  -5.1610  -5.1280  -4.0086  -3.9900  -3.0934  -3.0662
    -2.0086  -1.9860  -1.1236  -1.1235  -0.5715  -0.3492   0.2495   0.5856

          k = 0.1333 0.2308 0.0000 ( 17035 PWs)   bands (ev):

   -72.8295 -72.8295 -44.2504 -44.2493 -34.5121 -34.5117 -34.4555 -34.4511
   -28.3312 -28.3311 -28.3248 -28.3247 -28.2778 -28.2778 -26.1021 -26.1018
   -26.0930 -26.0928 -26.0662 -26.0661 -26.0379 -26.0378 -12.9320 -12.9135
   -12.0585 -12.0561  -4.2004  -4.1813  -2.9925  -2.9634  -2.2142  -2.1779
    -1.6239  -1.6191  -0.9799  -0.7205  -0.2659  -0.0321   0.2818   0.4159

          k = 0.1333 0.3078 0.0000 ( 17056 PWs)   bands (ev):

   -72.8278 -72.8278 -44.2579 -44.2561 -34.5335 -34.5308 -34.4702 -34.4663
   -28.3313 -28.3312 -28.3249 -28.3246 -28.2779 -28.2778 -26.1019 -26.1014
   -26.0933 -26.0931 -26.0665 -26.0664 -26.0378 -26.0377 -12.5900 -12.5562
   -11.8842 -11.8800  -3.9218  -3.8640  -3.4605  -3.4385  -2.7108  -2.6333
    -2.0467  -1.9869  -1.0994  -0.7822  -0.4335  -0.2318   0.1360   0.3942

          k = 0.1333 0.3847 0.0000 ( 17075 PWs)   bands (ev):

   -72.8262 -72.8262 -44.2651 -44.2626 -34.5609 -34.5539 -34.4775 -34.4753
   -28.3314 -28.3312 -28.3249 -28.3245 -28.2779 -28.2779 -26.1017 -26.1010
   -26.0936 -26.0932 -26.0668 -26.0667 -26.0376 -26.0375 -12.2266 -12.1748
   -11.7019 -11.6959  -4.2339  -4.2242  -3.3191  -3.3061  -3.2653  -3.2219
    -2.1760  -2.1146  -1.2944  -1.0146  -0.6760  -0.5375   0.1621   0.4689

          k = 0.1333 0.4617 0.0000 ( 17084 PWs)   bands (ev):

   -72.8249 -72.8249 -44.2708 -44.2677 -34.5844 -34.5740 -34.4809 -34.4802
   -28.3314 -28.3313 -28.3249 -28.3244 -28.2780 -28.2779 -26.1017 -26.1008
   -26.0938 -26.0933 -26.0671 -26.0669 -26.0375 -26.0374 -11.9090 -11.8396
   -11.5465 -11.5394  -4.6843  -4.6484  -3.7644  -3.7174  -3.1039  -3.0707
    -2.1932  -2.1361  -1.4005  -1.1630  -0.9023  -0.8188   0.2731   0.6048

          k = 0.1333 0.5386 0.0000 ( 17075 PWs)   bands (ev):

   -72.8242 -72.8242 -44.2738 -44.2704 -34.5976 -34.5854 -34.4823 -34.4823
   -28.3315 -28.3313 -28.3249 -28.3244 -28.2780 -28.2779 -26.1016 -26.1007
   -26.0938 -26.0934 -26.0672 -26.0670 -26.0375 -26.0374 -11.7180 -11.6375
   -11.4558 -11.4488  -4.9574  -4.8954  -4.0214  -3.9817  -3.0528  -3.0046
    -2.1729  -2.1167  -1.4145  -1.2259  -1.0080  -0.9852   0.3976   0.7502

          k = 0.1999 0.3462 0.0000 ( 17081 PWs)   bands (ev):

   -72.8263 -72.8263 -44.2648 -44.2619 -34.5554 -34.5473 -34.4813 -34.4789
   -28.3314 -28.3312 -28.3249 -28.3245 -28.2779 -28.2779 -26.1018 -26.1010
   -26.0936 -26.0932 -26.0668 -26.0667 -26.0377 -26.0376 -12.2620 -12.2034
   -11.7159 -11.7090  -4.0642  -4.0293  -3.3469  -3.3310  -3.1764  -3.0792
    -2.3581  -2.2544  -1.5051  -1.2294  -0.5705  -0.4228   0.1902   0.5026

          k = 0.1999 0.4232 0.0000 ( 17070 PWs)   bands (ev):

   -72.8250 -72.8250 -44.2708 -44.2669 -34.5767 -34.5626 -34.4888 -34.4886
   -28.3315 -28.3313 -28.3250 -28.3244 -28.2780 -28.2779 -26.1018 -26.1007
   -26.0938 -26.0933 -26.0671 -26.0669 -26.0376 -26.0374 -11.9473 -11.8623
   -11.5559 -11.5470  -4.3758  -4.3515  -3.6714  -3.5935  -3.0803  -3.0594
    -2.3932  -2.3044  -1.8762  -1.6697  -0.8091  -0.7235   0.2939   0.6293

          k = 0.1999 0.5001 0.0000 ( 17056 PWs)   bands (ev):

   -72.8241 -72.8241 -44.2748 -44.2704 -34.5917 -34.5735 -34.4951 -34.4928
   -28.3315 -28.3313 -28.3250 -28.3243 -28.2780 -28.2779 -26.1018 -26.1005
   -26.0939 -26.0933 -26.0672 -26.0670 -26.0375 -26.0374 -11.7131 -11.6072
   -11.4388 -11.4294  -4.6304  -4.5549  -4.0143  -3.9520  -2.9915  -2.9474
    -2.3354  -2.2962  -2.0170  -1.9125  -1.0389  -1.0086   0.4637   0.8249

          k = 0.1999 0.5771 0.0000 ( 17040 PWs)   bands (ev):

   -72.8237 -72.8237 -44.2763 -44.2716 -34.5972 -34.5773 -34.4972 -34.4942
   -28.3315 -28.3313 -28.3250 -28.3243 -28.2781 -28.2779 -26.1018 -26.1005
   -26.0939 -26.0933 -26.0673 -26.0671 -26.0375 -26.0373 -11.6251 -11.5111
   -11.3956 -11.3866  -4.7251  -4.6279  -4.1363  -4.0793  -2.9987  -2.9496
    -2.2918  -2.2851  -2.0125  -1.9725  -1.1373  -1.1348   0.5668   0.9463

          k = 0.2665 0.4617 0.0000 ( 17061 PWs)   bands (ev):

   -72.8240 -72.8240 -44.2752 -44.2703 -34.5886 -34.5670 -34.5018 -34.4976
   -28.3315 -28.3313 -28.3251 -28.3243 -28.2780 -28.2779 -26.1018 -26.1005
   -26.0939 -26.0933 -26.0673 -26.0670 -26.0375 -26.0374 -11.7124 -11.5976
   -11.4326 -11.4224  -4.4319  -4.3601  -4.0102  -3.9353  -2.9347  -2.9222
    -2.5068  -2.4245  -2.2644  -2.1873  -1.0225  -1.0011   0.4844   0.8494

          k = 0.2665 0.5386 0.0000 ( 17048 PWs)   bands (ev):

   -72.8235 -72.8235 -44.2776 -44.2722 -34.5950 -34.5682 -34.5101 -34.5027
   -28.3316 -28.3313 -28.3251 -28.3242 -28.2781 -28.2779 -26.1019 -26.1004
   -26.0940 -26.0933 -26.0674 -26.0671 -26.0375 -26.0373 -11.5761 -11.4436
   -11.3611 -11.3513  -4.4108  -4.2968  -4.2043  -4.1306  -3.0731  -2.9972
    -2.6153  -2.5781  -2.3397  -2.1268  -1.2303  -1.1923   0.6926   1.1063

          k = 0.3332 0.5771 0.0000 ( 17025 PWs)   bands (ev):

   -72.8233 -72.8233 -44.2785 -44.2728 -34.5957 -34.5645 -34.5174 -34.5066
   -28.3316 -28.3313 -28.3251 -28.3242 -28.2781 -28.2779 -26.1019 -26.1003
   -26.0940 -26.0933 -26.0674 -26.0671 -26.0375 -26.0373 -11.5267 -11.3846
   -11.3325 -11.3231  -4.2759  -4.2205  -4.2112  -4.0460  -3.3638  -3.2168
    -2.7315  -2.6514  -2.3264  -2.0871  -1.3419  -1.2635   0.8217   1.2874

     highest occupied level (ev):     1.2874

!    total energy              =    -581.86724961 Ry
     estimated scf accuracy    <          5.7E-13 Ry

     The total energy is the sum of the following terms:
     one-electron contribution =   -2754.76846156 Ry
     hartree contribution      =    1380.17470564 Ry
     xc contribution           =     -50.85719263 Ry
     ewald contribution        =     843.58369893 Ry

     convergence has been achieved in  13 iterations

     Forces acting on atoms (cartesian axes, Ry/au):

     atom    1 type  1   force =     0.00000000   -0.00000000   -0.00000077
     atom    2 type  2   force =     0.00000000   -0.00000000   -0.00000642
     atom    3 type  2   force =     0.00000000   -0.00000000    0.00000719
     The non-local contrib.  to forces
     atom    1 type  1   force =     0.00000000   -0.00000000    0.00004118
     atom    2 type  2   force =     0.00000000    0.00000000   -0.36237156
     atom    3 type  2   force =     0.00000000    0.00000000    0.36238517
     The ionic contribution  to forces
     atom    1 type  1   force =     0.00000045   -0.00000026    0.00009389
     atom    2 type  2   force =    -0.00000023    0.00000013   56.11114822
     atom    3 type  2   force =    -0.00000023    0.00000013  -56.11124210
     The local contribution  to forces
     atom    1 type  1   force =     0.00000076   -0.00002676   -0.00011814
     atom    2 type  2   force =     0.00000005    0.00000003  -55.74877229
     atom    3 type  2   force =     0.00000005    0.00000003   55.74887705
     The core correction contribution to forces
     atom    1 type  1   force =     0.00000000    0.00000000    0.00000000
     atom    2 type  2   force =     0.00000000    0.00000000    0.00000000
     atom    3 type  2   force =     0.00000000    0.00000000    0.00000000
     The Hubbard contrib.    to forces
     atom    1 type  1   force =     0.00000000    0.00000000    0.00000000
     atom    2 type  2   force =     0.00000000    0.00000000    0.00000000
     atom    3 type  2   force =     0.00000000    0.00000000    0.00000000
     The SCF correction term to forces
     atom    1 type  1   force =     0.00000000   -0.00000000   -0.00000616
     atom    2 type  2   force =    -0.00000000    0.00000000    0.00000075
     atom    3 type  2   force =    -0.00000000    0.00000000   -0.00000139

     Total force =     0.000010     Total SCF correction =     0.000006
     SCF correction compared to forces is large: reduce conv_thr to get better values


     Computing stress (Cartesian axis) and pressure

          total   stress  (Ry/bohr**3)                   (kbar)     P=       -0.00
  -0.00000002   0.00000000   0.00000000           -0.00        0.00        0.00
   0.00000000  -0.00000002   0.00000000            0.00       -0.00        0.00
   0.00000000  -0.00000000  -0.00000003            0.00       -0.00       -0.00


     Writing all to output data dir ./WSe2.save/
 
     init_run     :      0.30s CPU      0.49s WALL (       2 calls)
     electrons    :     35.68s CPU     37.54s WALL (      11 calls)
     update_pot   :      0.78s CPU      0.81s WALL (       9 calls)
     forces       :      0.71s CPU      0.72s WALL (      11 calls)
     stress       :      1.53s CPU      1.61s WALL (      11 calls)

     Called by init_run:
     wfcinit      :      0.14s CPU      0.20s WALL (       2 calls)
     potinit      :      0.03s CPU      0.04s WALL (       2 calls)
     hinit0       :      0.07s CPU      0.20s WALL (       2 calls)

     Called by electrons:
     c_bands      :     28.80s CPU     29.76s WALL (     214 calls)
     sum_band     :      4.73s CPU      4.90s WALL (     214 calls)
     v_of_rho     :      0.71s CPU      0.72s WALL (     223 calls)
     mix_rho      :      0.62s CPU      0.63s WALL (     214 calls)

     Called by c_bands:
     init_us_2    :      0.18s CPU      0.20s WALL (     904 calls)
     init_us_2:cp :      0.17s CPU      0.19s WALL (     904 calls)
     cegterg      :     24.99s CPU     25.61s WALL (     428 calls)

     Called by *egterg:
     cdiaghg      :      3.37s CPU      3.43s WALL (    1531 calls)
     h_psi        :     20.21s CPU     20.78s WALL (    1557 calls)
     g_psi        :      0.03s CPU      0.03s WALL (    1125 calls)

     Called by h_psi:
     h_psi:calbec :      0.81s CPU      0.85s WALL (    1557 calls)
     vloc_psi     :     17.71s CPU     18.22s WALL (    1557 calls)
     add_vuspsi   :      1.63s CPU      1.66s WALL (    1557 calls)

     General routines
     calbec       :      1.01s CPU      1.05s WALL (    1667 calls)
     fft          :      1.01s CPU      1.11s WALL (    3629 calls)
     ffts         :      0.23s CPU      0.23s WALL (     856 calls)
     fftw         :     19.79s CPU     20.38s WALL (  205916 calls)
 
     Parallel routines
 
     PWSCF        :     39.43s CPU     42.33s WALL

 
   This run was terminated on:  10:16:48  16Oct2023            

=------------------------------------------------------------------------------=
   JOB DONE.
=------------------------------------------------------------------------------=
TACC:  Shutdown complete. Exiting. 
