TACC:  Starting up job 5864533 
TACC:  Starting parallel tasks... 

     Program PHONON v.6.7MaX starts on 17Oct2023 at  1:53:57 

     This program is part of the open-source Quantum ESPRESSO suite
     for quantum simulation of materials; please cite
         "P. Giannozzi et al., J. Phys.:Condens. Matter 21 395502 (2009);
         "P. Giannozzi et al., J. Phys.:Condens. Matter 29 465901 (2017);
          URL http://www.quantum-espresso.org", 
     in publications or presentations arising from this work. More details at
     http://www.quantum-espresso.org/quote

     Parallel version (MPI), running on  2240 processors

     MPI processes distributed on    40 nodes
     K-points division:     npool     =      16
     R & G space division:  proc/nbgrp/npool/nimage =     140
     Reading input from ph.in
     Message from routine ph_restart_set_filename :
     cannot open file for reading or writing
     Message from routine ph_restart_set_filename :
     cannot open file for reading or writing
     Run is not recoverable starting from scratch

     Reading xml data from directory:

     ./WSe2.save/
     Message from routine read_pp_mesh:
     mesh size missing, using the one in header
     Message from routine read_pp_mesh:
     mesh size missing, using the one in header

     IMPORTANT: XC functional enforced from input :
     Exchange-correlation= PBE
                           (   1   4   3   4   0   0   0)
     Any further DFT definition will be discarded
     Please, verify this is what you really want

 
     Parallelization info
     --------------------
     sticks:   dense  smooth     PW     G-vecs:    dense   smooth      PW
     Min           6       6      1                  952      952     115
     Max           7       7      2                 1009     1009     168
     Sum         925     925    265               136613   136613   20963
 
     Reading collected, re-writing distributed wavefunctions


     Dynamical matrices for ( 9, 9, 1)  uniform grid of q-points
     (  12 q-points):
       N         xq(1)         xq(2)         xq(3) 
       1   0.000000000   0.000000000   0.000000000
       2   0.000000000   0.128300060   0.000000000
       3   0.000000000   0.256600120   0.000000000
       4   0.000000000   0.384900180   0.000000000
       5   0.000000000   0.513200239   0.000000000
       6   0.111111111   0.192450090   0.000000000
       7   0.111111111   0.320750150   0.000000000
       8   0.111111111   0.449050209   0.000000000
       9   0.111111111   0.577350269   0.000000000
      10   0.222222222   0.384900179   0.000000000
      11   0.222222222   0.513200239   0.000000000
      12   0.333333333   0.577350269   0.000000000

     Saving dvscf to file. Distribute only q points, not irreducible represetations.

     Calculation of q =    0.0000000   0.0000000   0.0000000

     --                                                                         

     bravais-lattice index     =            0
     lattice parameter (alat)  =       6.2768  a.u.
     unit-cell volume          =    1289.5566 (a.u.)^3
     number of atoms/cell      =            3
     number of atomic types    =            2
     kinetic-energy cut-off    =      85.0000  Ry
     charge density cut-off    =     340.0000  Ry
     convergence threshold     =      1.0E-15
     beta                      =       0.7000
     number of iterations used =            4
     Exchange-correlation= PBE
                           (   1   4   3   4   0   0   0)
     Non magnetic calculation with spin-orbit

     celldm(1)=    6.27683  celldm(2)=    0.00000  celldm(3)=    0.00000
     celldm(4)=    0.00000  celldm(5)=    0.00000  celldm(6)=    0.00000

     crystal axes: (cart. coord. in units of alat)
               a(1) = (  1.0000  0.0000  0.0000 )  
               a(2) = ( -0.5000  0.8660  0.0000 )  
               a(3) = (  0.0000  0.0000  6.0213 )  

     reciprocal axes: (cart. coord. in units 2 pi/alat)
               b(1) = (  1.0000  0.5774  0.0000 )  
               b(2) = (  0.0000  1.1547  0.0000 )  
               b(3) = (  0.0000  0.0000  0.1661 )  


     Atoms inside the unit cell: 

     Cartesian axes

     site n.  atom      mass           positions (alat units)
        1     W  183.8400   tau(    1) = (   -0.00000    0.57735    1.03395  )
        2     Se  78.9600   tau(    2) = (    0.50000    0.28868    1.54006  )
        3     Se  78.9600   tau(    3) = (    0.50000    0.28868    0.52781  )

     Computing dynamical matrix for 
                    q = (   0.0000000   0.0000000   0.0000000 )
 
      7 Sym.Ops. (with q -> -q+G )


     G cutoff =  339.3128  (    958 G-vectors)     FFT grid: ( 40, 40,225)
     number of k points=    27

     PseudoPot. # 1 for W  read from file:
     ./pp/W.upf
     MD5 check sum: db67cb0d1e4258a1e3a8a357a2b3a3f2
     Pseudo is Norm-conserving, Zval = 28.0
     Generated using ONCVPSP code by D. R. Hamann
     Using radial grid of 1396 points, 14 beta functions with: 
                l(1) =   0
                l(2) =   0
                l(3) =   1
                l(4) =   1
                l(5) =   1
                l(6) =   1
                l(7) =   2
                l(8) =   2
                l(9) =   2
               l(10) =   2
               l(11) =   3
               l(12) =   3
               l(13) =   3
               l(14) =   3

     PseudoPot. # 2 for Se read from file:
     ./pp/Se.upf
     MD5 check sum: cfe1483cd39788255e734f67871220b5
     Pseudo is Norm-conserving, Zval =  6.0
     Generated using ONCVPSP code by D. R. Hamann
     Using radial grid of 1214 points, 10 beta functions with: 
                l(1) =   0
                l(2) =   0
                l(3) =   1
                l(4) =   1
                l(5) =   1
                l(6) =   1
                l(7) =   2
                l(8) =   2
                l(9) =   2
               l(10) =   2

     Mode symmetry, C_3v (3m)   point group:


     Electric field:
     Dielectric constant
     Born effective charges in two ways 


     Atomic displacements:
     There are    6 irreducible representations

     Representation     1      1 modes -  To be done

     Representation     2      1 modes -  To be done

     Representation     3      1 modes -  To be done

     Representation     4      2 modes -  To be done

     Representation     5      2 modes -  To be done

     Representation     6      2 modes -  To be done



     Alpha used in Ewald sum =   2.8000
     PHONON       :      1.32s CPU      2.41s WALL


     Electric Fields Calculation

      iter #   1 total cpu time :    10.5 secs   av.it.:  10.8
      thresh= 1.000E-02 alpha_mix =  0.700 |ddv_scf|^2 =  2.657E-04

      iter #   2 total cpu time :    13.6 secs   av.it.:  14.2
      thresh= 1.630E-03 alpha_mix =  0.700 |ddv_scf|^2 =  6.953E-03

      iter #   3 total cpu time :    15.5 secs   av.it.:   7.8
      thresh= 8.338E-03 alpha_mix =  0.700 |ddv_scf|^2 =  6.976E-06

      iter #   4 total cpu time :    18.4 secs   av.it.:  15.0
      thresh= 2.641E-04 alpha_mix =  0.700 |ddv_scf|^2 =  2.708E-06

      iter #   5 total cpu time :    21.5 secs   av.it.:  15.0
      thresh= 1.646E-04 alpha_mix =  0.700 |ddv_scf|^2 =  1.459E-08

      iter #   6 total cpu time :    26.4 secs   av.it.:  16.8
      thresh= 1.208E-05 alpha_mix =  0.700 |ddv_scf|^2 =  1.307E-09

      iter #   7 total cpu time :    32.6 secs   av.it.:  14.0
      thresh= 3.616E-06 alpha_mix =  0.700 |ddv_scf|^2 =  3.211E-10

      iter #   8 total cpu time :    35.6 secs   av.it.:  15.2
      thresh= 1.792E-06 alpha_mix =  0.700 |ddv_scf|^2 =  5.940E-11

      iter #   9 total cpu time :    39.1 secs   av.it.:  17.2
      thresh= 7.707E-07 alpha_mix =  0.700 |ddv_scf|^2 =  8.145E-13

      iter #  10 total cpu time :    42.8 secs   av.it.:  19.2
      thresh= 9.025E-08 alpha_mix =  0.700 |ddv_scf|^2 =  7.674E-13

      iter #  11 total cpu time :    46.2 secs   av.it.:  18.3
      thresh= 8.760E-08 alpha_mix =  0.700 |ddv_scf|^2 =  2.038E-14

      iter #  12 total cpu time :    49.8 secs   av.it.:  17.2
      thresh= 1.427E-08 alpha_mix =  0.700 |ddv_scf|^2 =  4.760E-15

      iter #  13 total cpu time :    54.3 secs   av.it.:  16.0
      thresh= 6.899E-09 alpha_mix =  0.700 |ddv_scf|^2 =  5.188E-17

     End of electric fields calculation

          Dielectric constant in cartesian axis 

          (       5.650266382      -0.000000003       0.000000000 )
          (      -0.000000003       5.650266383       0.000000000 )
          (       0.000000000       0.000000000       1.387393010 )

          Effective charges (d Force / dE) in cartesian axis

           atom      1   W  
      Ex  (       -1.15817        0.00000        0.00000 )
      Ey  (        0.00000       -1.15817        0.00000 )
      Ez  (        0.00000        0.00000       -0.11281 )
           atom      2   Se 
      Ex  (        0.57886        0.00000        0.00000 )
      Ey  (        0.00000        0.57886        0.00000 )
      Ez  (        0.00000        0.00000        0.05613 )
           atom      3   Se 
      Ex  (        0.57897        0.00000        0.00000 )
      Ey  (        0.00000        0.57897        0.00000 )
      Ez  (        0.00000        0.00000        0.05624 )


     Representation #   1 mode #   1

     Self-consistent Calculation

      iter #   1 total cpu time :    56.6 secs   av.it.:  13.7
      thresh= 1.000E-02 alpha_mix =  0.700 |ddv_scf|^2 =  1.365E-03

      iter #   2 total cpu time :    57.8 secs   av.it.:  17.7
      thresh= 3.695E-03 alpha_mix =  0.700 |ddv_scf|^2 =  4.358E-02

      iter #   3 total cpu time :    58.8 secs   av.it.:  15.7
      thresh= 1.000E-02 alpha_mix =  0.700 |ddv_scf|^2 =  6.012E-05

      iter #   4 total cpu time :    60.0 secs   av.it.:  17.0
      thresh= 7.754E-04 alpha_mix =  0.700 |ddv_scf|^2 =  1.216E-05

      iter #   5 total cpu time :    61.0 secs   av.it.:  16.0
      thresh= 3.487E-04 alpha_mix =  0.700 |ddv_scf|^2 =  8.607E-09

      iter #   6 total cpu time :    62.1 secs   av.it.:  16.6
      thresh= 9.277E-06 alpha_mix =  0.700 |ddv_scf|^2 =  2.698E-10

      iter #   7 total cpu time :    63.3 secs   av.it.:  18.6
      thresh= 1.643E-06 alpha_mix =  0.700 |ddv_scf|^2 =  1.396E-09

      iter #   8 total cpu time :    64.4 secs   av.it.:  16.4
      thresh= 3.736E-06 alpha_mix =  0.700 |ddv_scf|^2 =  6.686E-12

      iter #   9 total cpu time :    65.6 secs   av.it.:  18.9
      thresh= 2.586E-07 alpha_mix =  0.700 |ddv_scf|^2 =  1.221E-12

      iter #  10 total cpu time :    66.8 secs   av.it.:  16.8
      thresh= 1.105E-07 alpha_mix =  0.700 |ddv_scf|^2 =  4.225E-14

      iter #  11 total cpu time :    68.4 secs   av.it.:  15.9
      thresh= 2.055E-08 alpha_mix =  0.700 |ddv_scf|^2 =  1.556E-16

     End of self-consistent calculation

     Convergence has been achieved 


     Representation #   2 mode #   2

     Self-consistent Calculation

      iter #   1 total cpu time :    69.3 secs   av.it.:   8.8
      thresh= 1.000E-02 alpha_mix =  0.700 |ddv_scf|^2 =  2.114E-05

      iter #   2 total cpu time :    70.5 secs   av.it.:  18.4
      thresh= 4.598E-04 alpha_mix =  0.700 |ddv_scf|^2 =  4.193E-04

      iter #   3 total cpu time :    71.5 secs   av.it.:  15.1
      thresh= 2.048E-03 alpha_mix =  0.700 |ddv_scf|^2 =  8.829E-06

      iter #   4 total cpu time :    72.6 secs   av.it.:  15.7
      thresh= 2.971E-04 alpha_mix =  0.700 |ddv_scf|^2 =  6.920E-07

      iter #   5 total cpu time :    73.7 secs   av.it.:  17.4
      thresh= 8.319E-05 alpha_mix =  0.700 |ddv_scf|^2 =  6.857E-08

      iter #   6 total cpu time :    75.4 secs   av.it.:  17.3
      thresh= 2.619E-05 alpha_mix =  0.700 |ddv_scf|^2 =  5.576E-09

      iter #   7 total cpu time :    76.5 secs   av.it.:  17.7
      thresh= 7.467E-06 alpha_mix =  0.700 |ddv_scf|^2 =  2.423E-10

      iter #   8 total cpu time :    86.7 secs   av.it.:  17.4
      thresh= 1.557E-06 alpha_mix =  0.700 |ddv_scf|^2 =  3.994E-11

      iter #   9 total cpu time :    87.8 secs   av.it.:  17.6
      thresh= 6.320E-07 alpha_mix =  0.700 |ddv_scf|^2 =  5.141E-14

      iter #  10 total cpu time :    88.9 secs   av.it.:  16.8
      thresh= 2.267E-08 alpha_mix =  0.700 |ddv_scf|^2 =  1.796E-14

      iter #  11 total cpu time :    90.1 secs   av.it.:  17.7
      thresh= 1.340E-08 alpha_mix =  0.700 |ddv_scf|^2 =  1.526E-14

      iter #  12 total cpu time :    91.7 secs   av.it.:  16.8
      thresh= 1.235E-08 alpha_mix =  0.700 |ddv_scf|^2 =  2.599E-16

     End of self-consistent calculation

     Convergence has been achieved 


     Representation #   3 mode #   3

     Self-consistent Calculation

      iter #   1 total cpu time :    92.7 secs   av.it.:   8.8
      thresh= 1.000E-02 alpha_mix =  0.700 |ddv_scf|^2 =  2.100E-05

      iter #   2 total cpu time :    93.9 secs   av.it.:  18.4
      thresh= 4.583E-04 alpha_mix =  0.700 |ddv_scf|^2 =  4.184E-04

      iter #   3 total cpu time :    94.9 secs   av.it.:  15.1
      thresh= 2.046E-03 alpha_mix =  0.700 |ddv_scf|^2 =  8.585E-06

      iter #   4 total cpu time :    96.0 secs   av.it.:  15.7
      thresh= 2.930E-04 alpha_mix =  0.700 |ddv_scf|^2 =  6.877E-07

      iter #   5 total cpu time :   109.9 secs   av.it.:  17.6
      thresh= 8.293E-05 alpha_mix =  0.700 |ddv_scf|^2 =  9.894E-08

      iter #   6 total cpu time :   111.0 secs   av.it.:  17.0
      thresh= 3.146E-05 alpha_mix =  0.700 |ddv_scf|^2 =  1.993E-09

      iter #   7 total cpu time :   112.2 secs   av.it.:  17.7
      thresh= 4.464E-06 alpha_mix =  0.700 |ddv_scf|^2 =  1.353E-10

      iter #   8 total cpu time :   113.3 secs   av.it.:  16.6
      thresh= 1.163E-06 alpha_mix =  0.700 |ddv_scf|^2 =  2.292E-11

      iter #   9 total cpu time :   114.5 secs   av.it.:  18.6
      thresh= 4.787E-07 alpha_mix =  0.700 |ddv_scf|^2 =  2.521E-11

      iter #  10 total cpu time :   115.7 secs   av.it.:  17.4
      thresh= 5.021E-07 alpha_mix =  0.700 |ddv_scf|^2 =  1.033E-13

      iter #  11 total cpu time :   116.8 secs   av.it.:  16.9
      thresh= 3.215E-08 alpha_mix =  0.700 |ddv_scf|^2 =  1.173E-14

      iter #  12 total cpu time :   117.9 secs   av.it.:  16.8
      thresh= 1.083E-08 alpha_mix =  0.700 |ddv_scf|^2 =  3.146E-15

      iter #  13 total cpu time :   119.0 secs   av.it.:  17.9
      thresh= 5.609E-09 alpha_mix =  0.700 |ddv_scf|^2 =  6.640E-16

      iter #  14 total cpu time :   120.7 secs   av.it.:  16.9
      thresh= 2.577E-09 alpha_mix =  0.700 |ddv_scf|^2 =  3.502E-18

     End of self-consistent calculation

     Convergence has been achieved 


     Representation #   4 modes #   4   5

     Self-consistent Calculation

      iter #   1 total cpu time :   122.2 secs   av.it.:   7.9
      thresh= 1.000E-02 alpha_mix =  0.700 |ddv_scf|^2 =  3.233E-09

      iter #   2 total cpu time :   124.9 secs   av.it.:  21.6
      thresh= 5.686E-06 alpha_mix =  0.700 |ddv_scf|^2 =  3.233E-10

      iter #   3 total cpu time :   127.5 secs   av.it.:  21.6
      thresh= 1.798E-06 alpha_mix =  0.700 |ddv_scf|^2 =  8.206E-11

      iter #   4 total cpu time :   129.9 secs   av.it.:  20.6
      thresh= 9.059E-07 alpha_mix =  0.700 |ddv_scf|^2 =  2.373E-12

      iter #   5 total cpu time :   132.4 secs   av.it.:  20.6
      thresh= 1.540E-07 alpha_mix =  0.700 |ddv_scf|^2 =  1.258E-14

      iter #   6 total cpu time :   134.9 secs   av.it.:  20.6
      thresh= 1.121E-08 alpha_mix =  0.700 |ddv_scf|^2 =  1.541E-16

     End of self-consistent calculation

     Convergence has been achieved 


     Representation #   5 modes #   6   7

     Self-consistent Calculation

      iter #   1 total cpu time :   136.7 secs   av.it.:   7.9
      thresh= 1.000E-02 alpha_mix =  0.700 |ddv_scf|^2 =  3.246E-09

      iter #   2 total cpu time :   139.2 secs   av.it.:  21.6
      thresh= 5.698E-06 alpha_mix =  0.700 |ddv_scf|^2 =  3.288E-10

      iter #   3 total cpu time :   141.8 secs   av.it.:  21.6
      thresh= 1.813E-06 alpha_mix =  0.700 |ddv_scf|^2 =  8.264E-11

      iter #   4 total cpu time :   144.2 secs   av.it.:  20.6
      thresh= 9.090E-07 alpha_mix =  0.700 |ddv_scf|^2 =  2.823E-12

      iter #   5 total cpu time :   146.6 secs   av.it.:  20.6
      thresh= 1.680E-07 alpha_mix =  0.700 |ddv_scf|^2 =  1.297E-14

      iter #   6 total cpu time :   149.4 secs   av.it.:  21.3
      thresh= 1.139E-08 alpha_mix =  0.700 |ddv_scf|^2 =  1.859E-16

     End of self-consistent calculation

     Convergence has been achieved 


     Representation #   6 modes #   8   9

     Self-consistent Calculation

      iter #   1 total cpu time :   151.6 secs   av.it.:  11.9
      thresh= 1.000E-02 alpha_mix =  0.700 |ddv_scf|^2 =  1.294E-06

      iter #   2 total cpu time :   154.0 secs   av.it.:  20.9
      thresh= 1.138E-04 alpha_mix =  0.700 |ddv_scf|^2 =  1.362E-06

      iter #   3 total cpu time :   156.4 secs   av.it.:  19.9
      thresh= 1.167E-04 alpha_mix =  0.700 |ddv_scf|^2 =  1.576E-09

      iter #   4 total cpu time :   158.7 secs   av.it.:  19.8
      thresh= 3.970E-06 alpha_mix =  0.700 |ddv_scf|^2 =  6.299E-12

      iter #   5 total cpu time :   161.2 secs   av.it.:  20.0
      thresh= 2.510E-07 alpha_mix =  0.700 |ddv_scf|^2 =  1.559E-13

      iter #   6 total cpu time :   163.8 secs   av.it.:  19.8
      thresh= 3.948E-08 alpha_mix =  0.700 |ddv_scf|^2 =  2.547E-15

      iter #   7 total cpu time :   166.6 secs   av.it.:  20.6
      thresh= 5.047E-09 alpha_mix =  0.700 |ddv_scf|^2 =  1.592E-16

     End of self-consistent calculation

     Convergence has been achieved 
 
     Number of q in the star =    1
     List of q in the star:
          1   0.000000000   0.000000000   0.000000000

          Dielectric constant in cartesian axis 

          (       5.650266382      -0.000000003       0.000000000 )
          (      -0.000000003       5.650266383       0.000000000 )
          (       0.000000000       0.000000000       1.387393010 )

          Effective charges (d Force / dE) in cartesian axis

           atom      1   W  
      Ex  (       -1.15817        0.00000        0.00000 )
      Ey  (        0.00000       -1.15817        0.00000 )
      Ez  (        0.00000        0.00000       -0.11281 )
           atom      2   Se 
      Ex  (        0.57886        0.00000        0.00000 )
      Ey  (        0.00000        0.57886        0.00000 )
      Ez  (        0.00000        0.00000        0.05613 )
           atom      3   Se 
      Ex  (        0.57897        0.00000        0.00000 )
      Ey  (        0.00000        0.57897        0.00000 )
      Ez  (        0.00000        0.00000        0.05624 )

          Effective charges (d P / du) in cartesian axis 

           atom      1   W  
      Px  (       -1.15814        0.00000        0.00000 )
      Py  (        0.00000       -1.15814        0.00000 )
      Pz  (        0.00000        0.00000       -0.11286 )
           atom      2   Se 
      Px  (        0.57899        0.00000        0.00000 )
      Py  (        0.00000        0.57899        0.00000 )
      Pz  (        0.00000        0.00000        0.05616 )
           atom      3   Se 
      Px  (        0.57892        0.00000        0.00000 )
      Py  (        0.00000        0.57892        0.00000 )
      Pz  (        0.00000        0.00000        0.05615 )

     Diagonalizing the dynamical matrix

     q = (    0.000000000   0.000000000   0.000000000 ) 

 **************************************************************************
     freq (    1) =      -0.299808 [THz] =     -10.000522 [cm-1]
     freq (    2) =      -0.299808 [THz] =     -10.000522 [cm-1]
     freq (    3) =      -0.090836 [THz] =      -3.029951 [cm-1]
     freq (    4) =       5.033132 [THz] =     167.887219 [cm-1]
     freq (    5) =       5.033132 [THz] =     167.887219 [cm-1]
     freq (    6) =       7.132831 [THz] =     237.925618 [cm-1]
     freq (    7) =       7.132831 [THz] =     237.925618 [cm-1]
     freq (    8) =       7.204461 [THz] =     240.314949 [cm-1]
     freq (    9) =       8.940578 [THz] =     298.225585 [cm-1]
 **************************************************************************

     Mode symmetry, C_3v (3m)   point group:

     freq (   1-   2) =        -10.0  [cm-1]   --> E    L_3        I+R
     freq (   3-   3) =         -3.0  [cm-1]   --> A_1  L_1        I+R
     freq (   4-   5) =        167.9  [cm-1]   --> E    L_3        I+R
     freq (   6-   7) =        237.9  [cm-1]   --> E    L_3        I+R
     freq (   8-   8) =        240.3  [cm-1]   --> A_1  L_1        I+R
     freq (   9-   9) =        298.2  [cm-1]   --> A_1  L_1        I+R

     Calculation of q =    0.0000000   0.1283001   0.0000000

     Subspace diagonalization in iterative solution of the eigenvalue problem:
     a serial algorithm will be used

 
     Parallelization info
     --------------------
     sticks:   dense  smooth     PW     G-vecs:    dense   smooth      PW
     Min           6       6      1                  952      952     117
     Max           7       7      2                 1009     1009     172
     Sum         925     925    265               136613   136613   21673
 

     Title: 
     --                                                                         


     bravais-lattice index     =            0
     lattice parameter (alat)  =       6.2768  a.u.
     unit-cell volume          =    1289.5566 (a.u.)^3
     number of atoms/cell      =            3
     number of atomic types    =            2
     number of electrons       =        40.00
     number of Kohn-Sham states=           40
     kinetic-energy cutoff     =      85.0000  Ry
     charge density cutoff     =     340.0000  Ry
     Exchange-correlation= PBE
                           (   1   4   3   4   0   0   0)
     Non magnetic calculation with spin-orbit


     celldm(1)=   6.276832  celldm(2)=   0.000000  celldm(3)=   0.000000
     celldm(4)=   0.000000  celldm(5)=   0.000000  celldm(6)=   0.000000

     crystal axes: (cart. coord. in units of alat)
               a(1) = (   1.000000   0.000000   0.000000 )  
               a(2) = (  -0.500000   0.866025   0.000000 )  
               a(3) = (   0.000000   0.000000   6.021271 )  

     reciprocal axes: (cart. coord. in units 2 pi/alat)
               b(1) = (  1.000000  0.577350  0.000000 )  
               b(2) = (  0.000000  1.154701  0.000000 )  
               b(3) = (  0.000000  0.000000  0.166078 )  


     PseudoPot. # 1 for W  read from file:
     ./pp/W.upf
     MD5 check sum: db67cb0d1e4258a1e3a8a357a2b3a3f2
     Pseudo is Norm-conserving, Zval = 28.0
     Generated using ONCVPSP code by D. R. Hamann
     Using radial grid of 1396 points, 14 beta functions with: 
                l(1) =   0
                l(2) =   0
                l(3) =   1
                l(4) =   1
                l(5) =   1
                l(6) =   1
                l(7) =   2
                l(8) =   2
                l(9) =   2
               l(10) =   2
               l(11) =   3
               l(12) =   3
               l(13) =   3
               l(14) =   3

     PseudoPot. # 2 for Se read from file:
     ./pp/Se.upf
     MD5 check sum: cfe1483cd39788255e734f67871220b5
     Pseudo is Norm-conserving, Zval =  6.0
     Generated using ONCVPSP code by D. R. Hamann
     Using radial grid of 1214 points, 10 beta functions with: 
                l(1) =   0
                l(2) =   0
                l(3) =   1
                l(4) =   1
                l(5) =   1
                l(6) =   1
                l(7) =   2
                l(8) =   2
                l(9) =   2
               l(10) =   2

     atomic species   valence    mass     pseudopotential
        W             28.00   183.84000     W ( 1.00)
        Se             6.00    78.96000     Se( 1.00)

      6 Sym. Ops. (no inversion) found



   Cartesian axes

     site n.     atom                  positions (alat units)
         1           W   tau(   1) = (  -0.0000000   0.5773503   1.0339457  )
         2           Se  tau(   2) = (   0.5000000   0.2886751   1.5400648  )
         3           Se  tau(   3) = (   0.5000000   0.2886751   0.5278142  )

     number of k points=   240

     Number of k-points >= 100: set verbosity='high' to print them.

     Dense  grid:   136613 G-vectors     FFT dimensions: (  40,  40, 225)

     Estimated max dynamical RAM per process >      24.57 MB

     Estimated total dynamical RAM >      53.74 GB

     The potential is recalculated from file :
     ./_ph0/WSe2.q_2/WSe2.save/charge-density

     Starting wfcs are   50 atomic wfcs

     Band Structure Calculation
     Davidson diagonalization with overlap

     ethr =  2.50E-11,  avg # of iterations = 15.1

     total cpu time spent up to now is        5.9 secs

     End of band structure calculation

     Number of k-points >= 100: set verbosity='high' to print the bands.

     highest occupied level (ev):     1.2874

     Writing output data file ./_ph0/WSe2.q_2/WSe2.save/

     --                                                                         

     bravais-lattice index     =            0
     lattice parameter (alat)  =       6.2768  a.u.
     unit-cell volume          =    1289.5566 (a.u.)^3
     number of atoms/cell      =            3
     number of atomic types    =            2
     kinetic-energy cut-off    =      85.0000  Ry
     charge density cut-off    =     340.0000  Ry
     convergence threshold     =      1.0E-15
     beta                      =       0.7000
     number of iterations used =            4
     Exchange-correlation= PBE
                           (   1   4   3   4   0   0   0)
     Non magnetic calculation with spin-orbit

     celldm(1)=    6.27683  celldm(2)=    0.00000  celldm(3)=    0.00000
     celldm(4)=    0.00000  celldm(5)=    0.00000  celldm(6)=    0.00000

     crystal axes: (cart. coord. in units of alat)
               a(1) = (  1.0000  0.0000  0.0000 )  
               a(2) = ( -0.5000  0.8660  0.0000 )  
               a(3) = (  0.0000  0.0000  6.0213 )  

     reciprocal axes: (cart. coord. in units 2 pi/alat)
               b(1) = (  1.0000  0.5774  0.0000 )  
               b(2) = (  0.0000  1.1547  0.0000 )  
               b(3) = (  0.0000  0.0000  0.1661 )  


     Atoms inside the unit cell: 

     Cartesian axes

     site n.  atom      mass           positions (alat units)
        1     W  183.8400   tau(    1) = (   -0.00000    0.57735    1.03395  )
        2     Se  78.9600   tau(    2) = (    0.50000    0.28868    1.54006  )
        3     Se  78.9600   tau(    3) = (    0.50000    0.28868    0.52781  )

     Computing dynamical matrix for 
                    q = (   0.0000000   0.1283001   0.0000000 )
 
      2 Sym.Ops. (no q -> -q+G )


     G cutoff =  339.3128  (    958 G-vectors)     FFT grid: ( 40, 40,225)
     number of k points=   240

     PseudoPot. # 1 for W  read from file:
     ./pp/W.upf
     MD5 check sum: db67cb0d1e4258a1e3a8a357a2b3a3f2
     Pseudo is Norm-conserving, Zval = 28.0
     Generated using ONCVPSP code by D. R. Hamann
     Using radial grid of 1396 points, 14 beta functions with: 
                l(1) =   0
                l(2) =   0
                l(3) =   1
                l(4) =   1
                l(5) =   1
                l(6) =   1
                l(7) =   2
                l(8) =   2
                l(9) =   2
               l(10) =   2
               l(11) =   3
               l(12) =   3
               l(13) =   3
               l(14) =   3

     PseudoPot. # 2 for Se read from file:
     ./pp/Se.upf
     MD5 check sum: cfe1483cd39788255e734f67871220b5
     Pseudo is Norm-conserving, Zval =  6.0
     Generated using ONCVPSP code by D. R. Hamann
     Using radial grid of 1214 points, 10 beta functions with: 
                l(1) =   0
                l(2) =   0
                l(3) =   1
                l(4) =   1
                l(5) =   1
                l(6) =   1
                l(7) =   2
                l(8) =   2
                l(9) =   2
               l(10) =   2

     Mode symmetry, C_s (m)     point group:


     Atomic displacements:
     There are    9 irreducible representations

     Representation     1      1 modes -  To be done

     Representation     2      1 modes -  To be done

     Representation     3      1 modes -  To be done

     Representation     4      1 modes -  To be done

     Representation     5      1 modes -  To be done

     Representation     6      1 modes -  To be done

     Representation     7      1 modes -  To be done

     Representation     8      1 modes -  To be done

     Representation     9      1 modes -  To be done



     Alpha used in Ewald sum =   2.8000
     PHONON       :   2m20.95s CPU   2m54.16s WALL



     Representation #   1 mode #   1

     Self-consistent Calculation

      iter #   1 total cpu time :   176.6 secs   av.it.:   9.0
      thresh= 1.000E-02 alpha_mix =  0.700 |ddv_scf|^2 =  3.339E-05

      iter #   2 total cpu time :   180.8 secs   av.it.:  17.7
      thresh= 5.778E-04 alpha_mix =  0.700 |ddv_scf|^2 =  1.006E-03

      iter #   3 total cpu time :   184.1 secs   av.it.:  14.0
      thresh= 3.172E-03 alpha_mix =  0.700 |ddv_scf|^2 =  5.195E-06

      iter #   4 total cpu time :   188.0 secs   av.it.:  16.0
      thresh= 2.279E-04 alpha_mix =  0.700 |ddv_scf|^2 =  2.691E-07

      iter #   5 total cpu time :   192.0 secs   av.it.:  17.8
      thresh= 5.187E-05 alpha_mix =  0.700 |ddv_scf|^2 =  6.740E-07

      iter #   6 total cpu time :   195.5 secs   av.it.:  15.5
      thresh= 8.210E-05 alpha_mix =  0.700 |ddv_scf|^2 =  4.549E-10

      iter #   7 total cpu time :   200.0 secs   av.it.:  19.5
      thresh= 2.133E-06 alpha_mix =  0.700 |ddv_scf|^2 =  5.559E-11

      iter #   8 total cpu time :   204.6 secs   av.it.:  19.1
      thresh= 7.456E-07 alpha_mix =  0.700 |ddv_scf|^2 =  7.717E-12

      iter #   9 total cpu time :   209.2 secs   av.it.:  19.7
      thresh= 2.778E-07 alpha_mix =  0.700 |ddv_scf|^2 =  7.526E-11

      iter #  10 total cpu time :   212.8 secs   av.it.:  15.9
      thresh= 8.675E-07 alpha_mix =  0.700 |ddv_scf|^2 =  3.648E-11

      iter #  11 total cpu time :   216.6 secs   av.it.:  15.9
      thresh= 6.039E-07 alpha_mix =  0.700 |ddv_scf|^2 =  7.414E-11

      iter #  12 total cpu time :   220.6 secs   av.it.:  15.9
      thresh= 8.611E-07 alpha_mix =  0.700 |ddv_scf|^2 =  1.305E-11

      iter #  13 total cpu time :   224.8 secs   av.it.:  17.9
      thresh= 3.612E-07 alpha_mix =  0.700 |ddv_scf|^2 =  2.148E-12

      iter #  14 total cpu time :   228.8 secs   av.it.:  17.5
      thresh= 1.466E-07 alpha_mix =  0.700 |ddv_scf|^2 =  2.981E-13

      iter #  15 total cpu time :   233.2 secs   av.it.:  19.0
      thresh= 5.460E-08 alpha_mix =  0.700 |ddv_scf|^2 =  1.547E-12

      iter #  16 total cpu time :   236.9 secs   av.it.:  16.4
      thresh= 1.244E-07 alpha_mix =  0.700 |ddv_scf|^2 =  6.205E-14

      iter #  17 total cpu time :   240.9 secs   av.it.:  17.6
      thresh= 2.491E-08 alpha_mix =  0.700 |ddv_scf|^2 =  6.083E-14

      iter #  18 total cpu time :   244.7 secs   av.it.:  16.9
      thresh= 2.466E-08 alpha_mix =  0.700 |ddv_scf|^2 =  1.393E-14

      iter #  19 total cpu time :   248.6 secs   av.it.:  17.8
      thresh= 1.180E-08 alpha_mix =  0.700 |ddv_scf|^2 =  5.481E-15

      iter #  20 total cpu time :   252.5 secs   av.it.:  16.9
      thresh= 7.403E-09 alpha_mix =  0.700 |ddv_scf|^2 =  7.013E-16

      iter #  21 total cpu time :   256.5 secs   av.it.:  18.0
      thresh= 2.648E-09 alpha_mix =  0.700 |ddv_scf|^2 =  4.536E-16

     End of self-consistent calculation

     Convergence has been achieved 


     Representation #   2 mode #   2

     Self-consistent Calculation

      iter #   1 total cpu time :   260.0 secs   av.it.:  13.8
      thresh= 1.000E-02 alpha_mix =  0.700 |ddv_scf|^2 =  4.253E-04

      iter #   2 total cpu time :   264.2 secs   av.it.:  19.0
      thresh= 2.062E-03 alpha_mix =  0.700 |ddv_scf|^2 =  7.918E-03

      iter #   3 total cpu time :   268.1 secs   av.it.:  15.5
      thresh= 8.898E-03 alpha_mix =  0.700 |ddv_scf|^2 =  1.649E-05

      iter #   4 total cpu time :   272.5 secs   av.it.:  18.0
      thresh= 4.061E-04 alpha_mix =  0.700 |ddv_scf|^2 =  1.574E-05

      iter #   5 total cpu time :   276.4 secs   av.it.:  15.6
      thresh= 3.967E-04 alpha_mix =  0.700 |ddv_scf|^2 =  5.965E-07

      iter #   6 total cpu time :   280.3 secs   av.it.:  17.1
      thresh= 7.724E-05 alpha_mix =  0.700 |ddv_scf|^2 =  1.678E-08

      iter #   7 total cpu time :   284.1 secs   av.it.:  15.9
      thresh= 1.295E-05 alpha_mix =  0.700 |ddv_scf|^2 =  1.748E-09

      iter #   8 total cpu time :   287.9 secs   av.it.:  16.1
      thresh= 4.181E-06 alpha_mix =  0.700 |ddv_scf|^2 =  1.455E-11

      iter #   9 total cpu time :   292.0 secs   av.it.:  18.6
      thresh= 3.814E-07 alpha_mix =  0.700 |ddv_scf|^2 =  7.333E-12

      iter #  10 total cpu time :   296.2 secs   av.it.:  17.9
      thresh= 2.708E-07 alpha_mix =  0.700 |ddv_scf|^2 =  3.638E-11

      iter #  11 total cpu time :   300.1 secs   av.it.:  16.6
      thresh= 6.032E-07 alpha_mix =  0.700 |ddv_scf|^2 =  4.509E-12

      iter #  12 total cpu time :   304.0 secs   av.it.:  17.0
      thresh= 2.123E-07 alpha_mix =  0.700 |ddv_scf|^2 =  6.645E-12

      iter #  13 total cpu time :   307.7 secs   av.it.:  16.8
      thresh= 2.578E-07 alpha_mix =  0.700 |ddv_scf|^2 =  3.781E-13

      iter #  14 total cpu time :   311.8 secs   av.it.:  18.5
      thresh= 6.149E-08 alpha_mix =  0.700 |ddv_scf|^2 =  1.048E-13

      iter #  15 total cpu time :   316.0 secs   av.it.:  17.9
      thresh= 3.238E-08 alpha_mix =  0.700 |ddv_scf|^2 =  1.226E-13

      iter #  16 total cpu time :   320.2 secs   av.it.:  18.2
      thresh= 3.501E-08 alpha_mix =  0.700 |ddv_scf|^2 =  2.350E-13

      iter #  17 total cpu time :   323.7 secs   av.it.:  15.9
      thresh= 4.848E-08 alpha_mix =  0.700 |ddv_scf|^2 =  4.611E-14

      iter #  18 total cpu time :   327.4 secs   av.it.:  15.0
      thresh= 2.147E-08 alpha_mix =  0.700 |ddv_scf|^2 =  3.711E-15

      iter #  19 total cpu time :   331.7 secs   av.it.:  18.8
      thresh= 6.091E-09 alpha_mix =  0.700 |ddv_scf|^2 =  2.603E-15

      iter #  20 total cpu time :   335.7 secs   av.it.:  17.9
      thresh= 5.102E-09 alpha_mix =  0.700 |ddv_scf|^2 =  5.318E-16

      iter #  21 total cpu time :   339.6 secs   av.it.:  17.4
      thresh= 2.306E-09 alpha_mix =  0.700 |ddv_scf|^2 =  6.604E-16

      iter #  22 total cpu time :   343.5 secs   av.it.:  16.9
      thresh= 2.570E-09 alpha_mix =  0.700 |ddv_scf|^2 =  1.133E-17

     End of self-consistent calculation

     Convergence has been achieved 


     Representation #   3 mode #   3

     Self-consistent Calculation

      iter #   1 total cpu time :   346.4 secs   av.it.:   9.4
      thresh= 1.000E-02 alpha_mix =  0.700 |ddv_scf|^2 =  1.797E-05

      iter #   2 total cpu time :   350.7 secs   av.it.:  18.7
      thresh= 4.240E-04 alpha_mix =  0.700 |ddv_scf|^2 =  8.173E-04

      iter #   3 total cpu time :   354.0 secs   av.it.:  14.0
      thresh= 2.859E-03 alpha_mix =  0.700 |ddv_scf|^2 =  9.359E-06

      iter #   4 total cpu time :   358.0 secs   av.it.:  16.1
      thresh= 3.059E-04 alpha_mix =  0.700 |ddv_scf|^2 =  9.009E-07

      iter #   5 total cpu time :   361.8 secs   av.it.:  16.9
      thresh= 9.491E-05 alpha_mix =  0.700 |ddv_scf|^2 =  3.022E-07

      iter #   6 total cpu time :   365.6 secs   av.it.:  16.2
      thresh= 5.498E-05 alpha_mix =  0.700 |ddv_scf|^2 =  4.491E-08

      iter #   7 total cpu time :   369.6 secs   av.it.:  17.3
      thresh= 2.119E-05 alpha_mix =  0.700 |ddv_scf|^2 =  6.223E-10

      iter #   8 total cpu time :   373.9 secs   av.it.:  18.5
      thresh= 2.495E-06 alpha_mix =  0.700 |ddv_scf|^2 =  7.429E-11

      iter #   9 total cpu time :   378.3 secs   av.it.:  18.8
      thresh= 8.619E-07 alpha_mix =  0.700 |ddv_scf|^2 =  1.424E-11

      iter #  10 total cpu time :   382.5 secs   av.it.:  17.7
      thresh= 3.774E-07 alpha_mix =  0.700 |ddv_scf|^2 =  6.282E-11

      iter #  11 total cpu time :   386.4 secs   av.it.:  14.9
      thresh= 7.926E-07 alpha_mix =  0.700 |ddv_scf|^2 =  3.329E-12

      iter #  12 total cpu time :   390.6 secs   av.it.:  18.2
      thresh= 1.825E-07 alpha_mix =  0.700 |ddv_scf|^2 =  1.699E-11

      iter #  13 total cpu time :   394.6 secs   av.it.:  16.8
      thresh= 4.122E-07 alpha_mix =  0.700 |ddv_scf|^2 =  7.556E-13

      iter #  14 total cpu time :   398.5 secs   av.it.:  17.4
      thresh= 8.693E-08 alpha_mix =  0.700 |ddv_scf|^2 =  4.945E-14

      iter #  15 total cpu time :   402.9 secs   av.it.:  19.3
      thresh= 2.224E-08 alpha_mix =  0.700 |ddv_scf|^2 =  5.777E-14

      iter #  16 total cpu time :   407.0 secs   av.it.:  16.9
      thresh= 2.404E-08 alpha_mix =  0.700 |ddv_scf|^2 =  2.172E-14

      iter #  17 total cpu time :   411.3 secs   av.it.:  18.0
      thresh= 1.474E-08 alpha_mix =  0.700 |ddv_scf|^2 =  3.293E-14

      iter #  18 total cpu time :   414.8 secs   av.it.:  15.2
      thresh= 1.815E-08 alpha_mix =  0.700 |ddv_scf|^2 =  4.094E-15

      iter #  19 total cpu time :   419.1 secs   av.it.:  18.8
      thresh= 6.398E-09 alpha_mix =  0.700 |ddv_scf|^2 =  3.289E-14

      iter #  20 total cpu time :   423.1 secs   av.it.:  16.9
      thresh= 1.814E-08 alpha_mix =  0.700 |ddv_scf|^2 =  2.355E-14

      iter #  21 total cpu time :   427.0 secs   av.it.:  16.4
      thresh= 1.535E-08 alpha_mix =  0.700 |ddv_scf|^2 =  1.279E-14

      iter #  22 total cpu time :   431.1 secs   av.it.:  16.4
      thresh= 1.131E-08 alpha_mix =  0.700 |ddv_scf|^2 =  7.015E-15

      iter #  23 total cpu time :   435.3 secs   av.it.:  16.8
      thresh= 8.376E-09 alpha_mix =  0.700 |ddv_scf|^2 =  8.400E-15

      iter #  24 total cpu time :   439.5 secs   av.it.:  17.9
      thresh= 9.165E-09 alpha_mix =  0.700 |ddv_scf|^2 =  4.316E-14

      iter #  25 total cpu time :   443.1 secs   av.it.:  15.3
      thresh= 2.078E-08 alpha_mix =  0.700 |ddv_scf|^2 =  3.221E-15

      iter #  26 total cpu time :   446.9 secs   av.it.:  17.3
      thresh= 5.675E-09 alpha_mix =  0.700 |ddv_scf|^2 =  7.505E-15

      iter #  27 total cpu time :   451.0 secs   av.it.:  16.1
      thresh= 8.663E-09 alpha_mix =  0.700 |ddv_scf|^2 =  7.345E-15

      iter #  28 total cpu time :   454.8 secs   av.it.:  16.7
      thresh= 8.571E-09 alpha_mix =  0.700 |ddv_scf|^2 =  5.034E-15

      iter #  29 total cpu time :   458.4 secs   av.it.:  15.6
      thresh= 7.095E-09 alpha_mix =  0.700 |ddv_scf|^2 =  1.077E-15

      iter #  30 total cpu time :   462.2 secs   av.it.:  15.7
      thresh= 3.281E-09 alpha_mix =  0.700 |ddv_scf|^2 =  7.645E-17

     End of self-consistent calculation

     Convergence has been achieved 


     Representation #   4 mode #   4

     Self-consistent Calculation

      iter #   1 total cpu time :   464.9 secs   av.it.:   9.3
      thresh= 1.000E-02 alpha_mix =  0.700 |ddv_scf|^2 =  1.663E-05

      iter #   2 total cpu time :   469.1 secs   av.it.:  18.8
      thresh= 4.078E-04 alpha_mix =  0.700 |ddv_scf|^2 =  7.526E-04

      iter #   3 total cpu time :   472.4 secs   av.it.:  14.0
      thresh= 2.743E-03 alpha_mix =  0.700 |ddv_scf|^2 =  9.557E-06

      iter #   4 total cpu time :   476.2 secs   av.it.:  16.1
      thresh= 3.091E-04 alpha_mix =  0.700 |ddv_scf|^2 =  9.223E-07

      iter #   5 total cpu time :   480.1 secs   av.it.:  16.9
      thresh= 9.604E-05 alpha_mix =  0.700 |ddv_scf|^2 =  2.671E-07

      iter #   6 total cpu time :   483.8 secs   av.it.:  16.4
      thresh= 5.168E-05 alpha_mix =  0.700 |ddv_scf|^2 =  5.207E-08

      iter #   7 total cpu time :   487.8 secs   av.it.:  17.3
      thresh= 2.282E-05 alpha_mix =  0.700 |ddv_scf|^2 =  1.055E-09

      iter #   8 total cpu time :   492.1 secs   av.it.:  18.6
      thresh= 3.248E-06 alpha_mix =  0.700 |ddv_scf|^2 =  7.308E-11

      iter #   9 total cpu time :   496.6 secs   av.it.:  18.8
      thresh= 8.549E-07 alpha_mix =  0.700 |ddv_scf|^2 =  1.467E-11

      iter #  10 total cpu time :   501.2 secs   av.it.:  18.9
      thresh= 3.830E-07 alpha_mix =  0.700 |ddv_scf|^2 =  9.096E-11

      iter #  11 total cpu time :   505.3 secs   av.it.:  15.4
      thresh= 9.537E-07 alpha_mix =  0.700 |ddv_scf|^2 =  1.737E-11

      iter #  12 total cpu time :   508.9 secs   av.it.:  15.9
      thresh= 4.167E-07 alpha_mix =  0.700 |ddv_scf|^2 =  9.174E-12

      iter #  13 total cpu time :   512.9 secs   av.it.:  17.6
      thresh= 3.029E-07 alpha_mix =  0.700 |ddv_scf|^2 =  1.169E-12

      iter #  14 total cpu time :   517.0 secs   av.it.:  17.8
      thresh= 1.081E-07 alpha_mix =  0.700 |ddv_scf|^2 =  6.089E-13

      iter #  15 total cpu time :   521.2 secs   av.it.:  17.4
      thresh= 7.803E-08 alpha_mix =  0.700 |ddv_scf|^2 =  8.907E-14

      iter #  16 total cpu time :   525.0 secs   av.it.:  16.9
      thresh= 2.984E-08 alpha_mix =  0.700 |ddv_scf|^2 =  2.348E-14

      iter #  17 total cpu time :   528.9 secs   av.it.:  16.8
      thresh= 1.532E-08 alpha_mix =  0.700 |ddv_scf|^2 =  3.591E-14

      iter #  18 total cpu time :   532.7 secs   av.it.:  16.8
      thresh= 1.895E-08 alpha_mix =  0.700 |ddv_scf|^2 =  4.030E-15

      iter #  19 total cpu time :   536.8 secs   av.it.:  18.4
      thresh= 6.348E-09 alpha_mix =  0.700 |ddv_scf|^2 =  6.464E-17

     End of self-consistent calculation

     Convergence has been achieved 


     Representation #   5 mode #   5

     Self-consistent Calculation

      iter #   1 total cpu time :   540.3 secs   av.it.:  13.1
      thresh= 1.000E-02 alpha_mix =  0.700 |ddv_scf|^2 =  1.022E-03

      iter #   2 total cpu time :   544.4 secs   av.it.:  18.0
      thresh= 3.196E-03 alpha_mix =  0.700 |ddv_scf|^2 =  3.517E-02

      iter #   3 total cpu time :   548.1 secs   av.it.:  15.1
      thresh= 1.000E-02 alpha_mix =  0.700 |ddv_scf|^2 =  1.919E-05

      iter #   4 total cpu time :   552.3 secs   av.it.:  18.9
      thresh= 4.381E-04 alpha_mix =  0.700 |ddv_scf|^2 =  4.412E-05

      iter #   5 total cpu time :   556.1 secs   av.it.:  16.4
      thresh= 6.642E-04 alpha_mix =  0.700 |ddv_scf|^2 =  2.450E-06

      iter #   6 total cpu time :   560.4 secs   av.it.:  17.8
      thresh= 1.565E-04 alpha_mix =  0.700 |ddv_scf|^2 =  1.548E-06

      iter #   7 total cpu time :   564.5 secs   av.it.:  16.8
      thresh= 1.244E-04 alpha_mix =  0.700 |ddv_scf|^2 =  1.761E-08

      iter #   8 total cpu time :   568.2 secs   av.it.:  16.1
      thresh= 1.327E-05 alpha_mix =  0.700 |ddv_scf|^2 =  4.128E-10

      iter #   9 total cpu time :   572.5 secs   av.it.:  19.8
      thresh= 2.032E-06 alpha_mix =  0.700 |ddv_scf|^2 =  5.110E-09

      iter #  10 total cpu time :   576.8 secs   av.it.:  15.3
      thresh= 7.148E-06 alpha_mix =  0.700 |ddv_scf|^2 =  2.909E-09

      iter #  11 total cpu time :   580.3 secs   av.it.:  14.8
      thresh= 5.393E-06 alpha_mix =  0.700 |ddv_scf|^2 =  8.584E-10

      iter #  12 total cpu time :   584.2 secs   av.it.:  15.9
      thresh= 2.930E-06 alpha_mix =  0.700 |ddv_scf|^2 =  5.985E-10

      iter #  13 total cpu time :   588.2 secs   av.it.:  17.8
      thresh= 2.446E-06 alpha_mix =  0.700 |ddv_scf|^2 =  5.767E-10

      iter #  14 total cpu time :   592.1 secs   av.it.:  17.4
      thresh= 2.401E-06 alpha_mix =  0.700 |ddv_scf|^2 =  7.924E-11

      iter #  15 total cpu time :   596.0 secs   av.it.:  15.9
      thresh= 8.901E-07 alpha_mix =  0.700 |ddv_scf|^2 =  1.617E-11

      iter #  16 total cpu time :   600.0 secs   av.it.:  17.8
      thresh= 4.021E-07 alpha_mix =  0.700 |ddv_scf|^2 =  1.811E-11

      iter #  17 total cpu time :   603.4 secs   av.it.:  14.9
      thresh= 4.255E-07 alpha_mix =  0.700 |ddv_scf|^2 =  8.713E-12

      iter #  18 total cpu time :   607.1 secs   av.it.:  16.2
      thresh= 2.952E-07 alpha_mix =  0.700 |ddv_scf|^2 =  5.987E-13

      iter #  19 total cpu time :   611.0 secs   av.it.:  17.1
      thresh= 7.738E-08 alpha_mix =  0.700 |ddv_scf|^2 =  1.617E-13

      iter #  20 total cpu time :   615.4 secs   av.it.:  17.8
      thresh= 4.021E-08 alpha_mix =  0.700 |ddv_scf|^2 =  1.714E-13

      iter #  21 total cpu time :   619.5 secs   av.it.:  18.6
      thresh= 4.140E-08 alpha_mix =  0.700 |ddv_scf|^2 =  3.445E-13

      iter #  22 total cpu time :   623.4 secs   av.it.:  17.1
      thresh= 5.870E-08 alpha_mix =  0.700 |ddv_scf|^2 =  2.071E-14

      iter #  23 total cpu time :   627.3 secs   av.it.:  16.4
      thresh= 1.439E-08 alpha_mix =  0.700 |ddv_scf|^2 =  4.666E-14

      iter #  24 total cpu time :   631.3 secs   av.it.:  17.2
      thresh= 2.160E-08 alpha_mix =  0.700 |ddv_scf|^2 =  2.111E-14

      iter #  25 total cpu time :   635.3 secs   av.it.:  17.1
      thresh= 1.453E-08 alpha_mix =  0.700 |ddv_scf|^2 =  3.041E-14

      iter #  26 total cpu time :   639.4 secs   av.it.:  17.5
      thresh= 1.744E-08 alpha_mix =  0.700 |ddv_scf|^2 =  6.358E-14

      iter #  27 total cpu time :   643.3 secs   av.it.:  15.8
      thresh= 2.521E-08 alpha_mix =  0.700 |ddv_scf|^2 =  7.869E-15

      iter #  28 total cpu time :   647.4 secs   av.it.:  18.6
      thresh= 8.871E-09 alpha_mix =  0.700 |ddv_scf|^2 =  1.083E-13

      iter #  29 total cpu time :   650.9 secs   av.it.:  15.0
      thresh= 3.290E-08 alpha_mix =  0.700 |ddv_scf|^2 =  6.596E-15

      iter #  30 total cpu time :   655.2 secs   av.it.:  18.6
      thresh= 8.121E-09 alpha_mix =  0.700 |ddv_scf|^2 =  5.485E-14

      iter #  31 total cpu time :   659.0 secs   av.it.:  15.5
      thresh= 2.342E-08 alpha_mix =  0.700 |ddv_scf|^2 =  9.035E-15

      iter #  32 total cpu time :   663.7 secs   av.it.:  15.7
      thresh= 9.505E-09 alpha_mix =  0.700 |ddv_scf|^2 =  6.826E-16

      iter #  33 total cpu time :   667.9 secs   av.it.:  19.0
      thresh= 2.613E-09 alpha_mix =  0.700 |ddv_scf|^2 =  5.115E-15

      iter #  34 total cpu time :   671.6 secs   av.it.:  16.0
      thresh= 7.152E-09 alpha_mix =  0.700 |ddv_scf|^2 =  2.219E-16

     End of self-consistent calculation

     Convergence has been achieved 


     Representation #   6 mode #   6

     Self-consistent Calculation

      iter #   1 total cpu time :   674.2 secs   av.it.:   9.0
      thresh= 1.000E-02 alpha_mix =  0.700 |ddv_scf|^2 =  3.203E-05

      iter #   2 total cpu time :   678.1 secs   av.it.:  17.7
      thresh= 5.659E-04 alpha_mix =  0.700 |ddv_scf|^2 =  9.410E-04

      iter #   3 total cpu time :   681.4 secs   av.it.:  14.0
      thresh= 3.068E-03 alpha_mix =  0.700 |ddv_scf|^2 =  5.885E-06

      iter #   4 total cpu time :   685.2 secs   av.it.:  15.9
      thresh= 2.426E-04 alpha_mix =  0.700 |ddv_scf|^2 =  2.712E-07

      iter #   5 total cpu time :   689.3 secs   av.it.:  17.8
      thresh= 5.207E-05 alpha_mix =  0.700 |ddv_scf|^2 =  6.499E-07

      iter #   6 total cpu time :   692.9 secs   av.it.:  15.5
      thresh= 8.062E-05 alpha_mix =  0.700 |ddv_scf|^2 =  5.451E-10

      iter #   7 total cpu time :   697.3 secs   av.it.:  19.6
      thresh= 2.335E-06 alpha_mix =  0.700 |ddv_scf|^2 =  7.339E-11

      iter #   8 total cpu time :   701.8 secs   av.it.:  19.3
      thresh= 8.567E-07 alpha_mix =  0.700 |ddv_scf|^2 =  1.427E-11

      iter #   9 total cpu time :   705.9 secs   av.it.:  18.1
      thresh= 3.777E-07 alpha_mix =  0.700 |ddv_scf|^2 =  1.106E-11

      iter #  10 total cpu time :   709.5 secs   av.it.:  15.7
      thresh= 3.326E-07 alpha_mix =  0.700 |ddv_scf|^2 =  3.799E-12

      iter #  11 total cpu time :   713.0 secs   av.it.:  15.3
      thresh= 1.949E-07 alpha_mix =  0.700 |ddv_scf|^2 =  1.851E-13

      iter #  12 total cpu time :   717.4 secs   av.it.:  18.7
      thresh= 4.302E-08 alpha_mix =  0.700 |ddv_scf|^2 =  4.573E-13

      iter #  13 total cpu time :   721.6 secs   av.it.:  17.1
      thresh= 6.762E-08 alpha_mix =  0.700 |ddv_scf|^2 =  7.275E-14

      iter #  14 total cpu time :   725.7 secs   av.it.:  18.6
      thresh= 2.697E-08 alpha_mix =  0.700 |ddv_scf|^2 =  3.167E-14

      iter #  15 total cpu time :   729.9 secs   av.it.:  18.8
      thresh= 1.780E-08 alpha_mix =  0.700 |ddv_scf|^2 =  8.452E-14

      iter #  16 total cpu time :   733.6 secs   av.it.:  15.6
      thresh= 2.907E-08 alpha_mix =  0.700 |ddv_scf|^2 =  2.096E-14

      iter #  17 total cpu time :   737.1 secs   av.it.:  15.2
      thresh= 1.448E-08 alpha_mix =  0.700 |ddv_scf|^2 =  3.870E-15

      iter #  18 total cpu time :   741.0 secs   av.it.:  17.9
      thresh= 6.221E-09 alpha_mix =  0.700 |ddv_scf|^2 =  1.079E-15

      iter #  19 total cpu time :   745.2 secs   av.it.:  18.6
      thresh= 3.285E-09 alpha_mix =  0.700 |ddv_scf|^2 =  1.080E-15

      iter #  20 total cpu time :   749.3 secs   av.it.:  17.9
      thresh= 3.287E-09 alpha_mix =  0.700 |ddv_scf|^2 =  1.097E-16

     End of self-consistent calculation

     Convergence has been achieved 


     Representation #   7 mode #   7

     Self-consistent Calculation

      iter #   1 total cpu time :   751.6 secs   av.it.:   8.0
      thresh= 1.000E-02 alpha_mix =  0.700 |ddv_scf|^2 =  1.450E-08

      iter #   2 total cpu time :   756.1 secs   av.it.:  20.7
      thresh= 1.204E-05 alpha_mix =  0.700 |ddv_scf|^2 =  1.850E-09

      iter #   3 total cpu time :   760.8 secs   av.it.:  20.7
      thresh= 4.301E-06 alpha_mix =  0.700 |ddv_scf|^2 =  4.236E-10

      iter #   4 total cpu time :   765.1 secs   av.it.:  19.1
      thresh= 2.058E-06 alpha_mix =  0.700 |ddv_scf|^2 =  1.175E-11

      iter #   5 total cpu time :   769.3 secs   av.it.:  19.1
      thresh= 3.428E-07 alpha_mix =  0.700 |ddv_scf|^2 =  5.073E-14

      iter #   6 total cpu time :   773.8 secs   av.it.:  20.5
      thresh= 2.252E-08 alpha_mix =  0.700 |ddv_scf|^2 =  8.913E-16

      iter #   7 total cpu time :   778.4 secs   av.it.:  19.6
      thresh= 2.985E-09 alpha_mix =  0.700 |ddv_scf|^2 =  6.312E-17

     End of self-consistent calculation

     Convergence has been achieved 


     Representation #   8 mode #   8

     Self-consistent Calculation

      iter #   1 total cpu time :   780.7 secs   av.it.:   8.0
      thresh= 1.000E-02 alpha_mix =  0.700 |ddv_scf|^2 =  1.445E-08

      iter #   2 total cpu time :   785.2 secs   av.it.:  20.7
      thresh= 1.202E-05 alpha_mix =  0.700 |ddv_scf|^2 =  1.826E-09

      iter #   3 total cpu time :   789.7 secs   av.it.:  20.7
      thresh= 4.274E-06 alpha_mix =  0.700 |ddv_scf|^2 =  4.211E-10

      iter #   4 total cpu time :   794.1 secs   av.it.:  19.1
      thresh= 2.052E-06 alpha_mix =  0.700 |ddv_scf|^2 =  9.937E-12

      iter #   5 total cpu time :   798.5 secs   av.it.:  19.3
      thresh= 3.152E-07 alpha_mix =  0.700 |ddv_scf|^2 =  4.352E-14

      iter #   6 total cpu time :   803.0 secs   av.it.:  20.3
      thresh= 2.086E-08 alpha_mix =  0.700 |ddv_scf|^2 =  7.294E-16

      iter #   7 total cpu time :   807.6 secs   av.it.:  19.5
      thresh= 2.701E-09 alpha_mix =  0.700 |ddv_scf|^2 =  6.488E-17

     End of self-consistent calculation

     Convergence has been achieved 


     Representation #   9 mode #   9

     Self-consistent Calculation

      iter #   1 total cpu time :   810.8 secs   av.it.:  12.0
      thresh= 1.000E-02 alpha_mix =  0.700 |ddv_scf|^2 =  5.377E-06

      iter #   2 total cpu time :   815.3 secs   av.it.:  20.0
      thresh= 2.319E-04 alpha_mix =  0.700 |ddv_scf|^2 =  5.764E-06

      iter #   3 total cpu time :   819.7 secs   av.it.:  18.9
      thresh= 2.401E-04 alpha_mix =  0.700 |ddv_scf|^2 =  6.130E-09

      iter #   4 total cpu time :   824.1 secs   av.it.:  18.7
      thresh= 7.829E-06 alpha_mix =  0.700 |ddv_scf|^2 =  2.409E-11

      iter #   5 total cpu time :   828.8 secs   av.it.:  19.2
      thresh= 4.908E-07 alpha_mix =  0.700 |ddv_scf|^2 =  7.597E-13

      iter #   6 total cpu time :   833.3 secs   av.it.:  19.0
      thresh= 8.716E-08 alpha_mix =  0.700 |ddv_scf|^2 =  1.896E-14

      iter #   7 total cpu time :   838.0 secs   av.it.:  19.7
      thresh= 1.377E-08 alpha_mix =  0.700 |ddv_scf|^2 =  7.531E-16

      iter #   8 total cpu time :   842.4 secs   av.it.:  19.6
      thresh= 2.744E-09 alpha_mix =  0.700 |ddv_scf|^2 =  2.914E-17

     End of self-consistent calculation

     Convergence has been achieved 
 
     Number of q in the star =    3
     List of q in the star:
          1   0.000000000   0.128300060   0.000000000
          2  -0.111111111  -0.064150030   0.000000000
          3   0.111111111  -0.064150030   0.000000000
     In addition there is the -q list: 
          1   0.000000000  -0.128300060   0.000000000
          2   0.111111111   0.064150030   0.000000000
          3  -0.111111111   0.064150030   0.000000000

     Diagonalizing the dynamical matrix

     q = (    0.000000000   0.128300060   0.000000000 ) 

 **************************************************************************
     freq (    1) =       0.427438 [THz] =      14.257785 [cm-1]
     freq (    2) =       1.066078 [THz] =      35.560537 [cm-1]
     freq (    3) =       1.658079 [THz] =      55.307572 [cm-1]
     freq (    4) =       5.103425 [THz] =     170.231930 [cm-1]
     freq (    5) =       5.317847 [THz] =     177.384291 [cm-1]
     freq (    6) =       6.830714 [THz] =     227.848091 [cm-1]
     freq (    7) =       7.124424 [THz] =     237.645217 [cm-1]
     freq (    8) =       7.463159 [THz] =     248.944173 [cm-1]
     freq (    9) =       8.756860 [THz] =     292.097411 [cm-1]
 **************************************************************************

     Mode symmetry, C_s (m)     point group:

     freq (   1-   1) =         14.3  [cm-1]   --> A'                 
     freq (   2-   2) =         35.6  [cm-1]   --> A''                
     freq (   3-   3) =         55.3  [cm-1]   --> A'                 
     freq (   4-   4) =        170.2  [cm-1]   --> A''                
     freq (   5-   5) =        177.4  [cm-1]   --> A'                 
     freq (   6-   6) =        227.8  [cm-1]   --> A'                 
     freq (   7-   7) =        237.6  [cm-1]   --> A''                
     freq (   8-   8) =        248.9  [cm-1]   --> A'                 
     freq (   9-   9) =        292.1  [cm-1]   --> A'                 

     Calculation of q =    0.0000000   0.2566001   0.0000000
 
     Parallelization info
     --------------------
     sticks:   dense  smooth     PW     G-vecs:    dense   smooth      PW
     Min           6       6      2                  952      952     132
     Max           7       7      3                 1009     1009     174
     Sum         925     925    283               136613   136613   22507
 

     Title: 
     --                                                                         


     bravais-lattice index     =            0
     lattice parameter (alat)  =       6.2768  a.u.
     unit-cell volume          =    1289.5566 (a.u.)^3
     number of atoms/cell      =            3
     number of atomic types    =            2
     number of electrons       =        40.00
     number of Kohn-Sham states=           40
     kinetic-energy cutoff     =      85.0000  Ry
     charge density cutoff     =     340.0000  Ry
     Exchange-correlation= PBE
                           (   1   4   3   4   0   0   0)
     Non magnetic calculation with spin-orbit


     celldm(1)=   6.276832  celldm(2)=   0.000000  celldm(3)=   0.000000
     celldm(4)=   0.000000  celldm(5)=   0.000000  celldm(6)=   0.000000

     crystal axes: (cart. coord. in units of alat)
               a(1) = (   1.000000   0.000000   0.000000 )  
               a(2) = (  -0.500000   0.866025   0.000000 )  
               a(3) = (   0.000000   0.000000   6.021271 )  

     reciprocal axes: (cart. coord. in units 2 pi/alat)
               b(1) = (  1.000000  0.577350  0.000000 )  
               b(2) = (  0.000000  1.154701  0.000000 )  
               b(3) = (  0.000000  0.000000  0.166078 )  


     PseudoPot. # 1 for W  read from file:
     ./pp/W.upf
     MD5 check sum: db67cb0d1e4258a1e3a8a357a2b3a3f2
     Pseudo is Norm-conserving, Zval = 28.0
     Generated using ONCVPSP code by D. R. Hamann
     Using radial grid of 1396 points, 14 beta functions with: 
                l(1) =   0
                l(2) =   0
                l(3) =   1
                l(4) =   1
                l(5) =   1
                l(6) =   1
                l(7) =   2
                l(8) =   2
                l(9) =   2
               l(10) =   2
               l(11) =   3
               l(12) =   3
               l(13) =   3
               l(14) =   3

     PseudoPot. # 2 for Se read from file:
     ./pp/Se.upf
     MD5 check sum: cfe1483cd39788255e734f67871220b5
     Pseudo is Norm-conserving, Zval =  6.0
     Generated using ONCVPSP code by D. R. Hamann
     Using radial grid of 1214 points, 10 beta functions with: 
                l(1) =   0
                l(2) =   0
                l(3) =   1
                l(4) =   1
                l(5) =   1
                l(6) =   1
                l(7) =   2
                l(8) =   2
                l(9) =   2
               l(10) =   2

     atomic species   valence    mass     pseudopotential
        W             28.00   183.84000     W ( 1.00)
        Se             6.00    78.96000     Se( 1.00)

      6 Sym. Ops. (no inversion) found



   Cartesian axes

     site n.     atom                  positions (alat units)
         1           W   tau(   1) = (  -0.0000000   0.5773503   1.0339457  )
         2           Se  tau(   2) = (   0.5000000   0.2886751   1.5400648  )
         3           Se  tau(   3) = (   0.5000000   0.2886751   0.5278142  )

     number of k points=   240

     Number of k-points >= 100: set verbosity='high' to print them.

     Dense  grid:   136613 G-vectors     FFT dimensions: (  40,  40, 225)

     Estimated max dynamical RAM per process >      24.72 MB

     Estimated total dynamical RAM >      54.08 GB
     Message from routine sym_rho_init:
     some processors have no G-vectors for symmetrization
     Message from routine sym_rho_init:
     some processors have no G-vectors for symmetrization

     The potential is recalculated from file :
     ./_ph0/WSe2.q_3/WSe2.save/charge-density

     Starting wfcs are   50 atomic wfcs

     Band Structure Calculation
     Davidson diagonalization with overlap

     ethr =  2.50E-11,  avg # of iterations = 15.1

     total cpu time spent up to now is       12.7 secs

     End of band structure calculation

     Number of k-points >= 100: set verbosity='high' to print the bands.

     highest occupied level (ev):     1.2874

     Writing output data file ./_ph0/WSe2.q_3/WSe2.save/

     --                                                                         

     bravais-lattice index     =            0
     lattice parameter (alat)  =       6.2768  a.u.
     unit-cell volume          =    1289.5566 (a.u.)^3
     number of atoms/cell      =            3
     number of atomic types    =            2
     kinetic-energy cut-off    =      85.0000  Ry
     charge density cut-off    =     340.0000  Ry
     convergence threshold     =      1.0E-15
     beta                      =       0.7000
     number of iterations used =            4
     Exchange-correlation= PBE
                           (   1   4   3   4   0   0   0)
     Non magnetic calculation with spin-orbit

     celldm(1)=    6.27683  celldm(2)=    0.00000  celldm(3)=    0.00000
     celldm(4)=    0.00000  celldm(5)=    0.00000  celldm(6)=    0.00000

     crystal axes: (cart. coord. in units of alat)
               a(1) = (  1.0000  0.0000  0.0000 )  
               a(2) = ( -0.5000  0.8660  0.0000 )  
               a(3) = (  0.0000  0.0000  6.0213 )  

     reciprocal axes: (cart. coord. in units 2 pi/alat)
               b(1) = (  1.0000  0.5774  0.0000 )  
               b(2) = (  0.0000  1.1547  0.0000 )  
               b(3) = (  0.0000  0.0000  0.1661 )  


     Atoms inside the unit cell: 

     Cartesian axes

     site n.  atom      mass           positions (alat units)
        1     W  183.8400   tau(    1) = (   -0.00000    0.57735    1.03395  )
        2     Se  78.9600   tau(    2) = (    0.50000    0.28868    1.54006  )
        3     Se  78.9600   tau(    3) = (    0.50000    0.28868    0.52781  )

     Computing dynamical matrix for 
                    q = (   0.0000000   0.2566001   0.0000000 )
 
      2 Sym.Ops. (no q -> -q+G )


     G cutoff =  339.3128  (    991 G-vectors)     FFT grid: ( 40, 40,225)
     number of k points=   240

     PseudoPot. # 1 for W  read from file:
     ./pp/W.upf
     MD5 check sum: db67cb0d1e4258a1e3a8a357a2b3a3f2
     Pseudo is Norm-conserving, Zval = 28.0
     Generated using ONCVPSP code by D. R. Hamann
     Using radial grid of 1396 points, 14 beta functions with: 
                l(1) =   0
                l(2) =   0
                l(3) =   1
                l(4) =   1
                l(5) =   1
                l(6) =   1
                l(7) =   2
                l(8) =   2
                l(9) =   2
               l(10) =   2
               l(11) =   3
               l(12) =   3
               l(13) =   3
               l(14) =   3

     PseudoPot. # 2 for Se read from file:
     ./pp/Se.upf
     MD5 check sum: cfe1483cd39788255e734f67871220b5
     Pseudo is Norm-conserving, Zval =  6.0
     Generated using ONCVPSP code by D. R. Hamann
     Using radial grid of 1214 points, 10 beta functions with: 
                l(1) =   0
                l(2) =   0
                l(3) =   1
                l(4) =   1
                l(5) =   1
                l(6) =   1
                l(7) =   2
                l(8) =   2
                l(9) =   2
               l(10) =   2

     Mode symmetry, C_s (m)     point group:


     Atomic displacements:
     There are    9 irreducible representations

     Representation     1      1 modes -  To be done

     Representation     2      1 modes -  To be done

     Representation     3      1 modes -  To be done

     Representation     4      1 modes -  To be done

     Representation     5      1 modes -  To be done

     Representation     6      1 modes -  To be done

     Representation     7      1 modes -  To be done

     Representation     8      1 modes -  To be done

     Representation     9      1 modes -  To be done



     Alpha used in Ewald sum =   2.8000
     PHONON       :  13m 6.40s CPU  14m10.55s WALL



     Representation #   1 mode #   1

     Self-consistent Calculation

      iter #   1 total cpu time :   856.4 secs   av.it.:   9.5
      thresh= 1.000E-02 alpha_mix =  0.700 |ddv_scf|^2 =  1.239E-05

      iter #   2 total cpu time :   869.2 secs   av.it.:  19.0
      thresh= 3.520E-04 alpha_mix =  0.700 |ddv_scf|^2 =  4.460E-04

      iter #   3 total cpu time :   882.7 secs   av.it.:  15.2
      thresh= 2.112E-03 alpha_mix =  0.700 |ddv_scf|^2 =  3.511E-06

      iter #   4 total cpu time :   887.5 secs   av.it.:  17.1
      thresh= 1.874E-04 alpha_mix =  0.700 |ddv_scf|^2 =  4.240E-08

      iter #   5 total cpu time :   894.4 secs   av.it.:  18.9
      thresh= 2.059E-05 alpha_mix =  0.700 |ddv_scf|^2 =  5.897E-08

      iter #   6 total cpu time :   909.9 secs   av.it.:  17.1
      thresh= 2.428E-05 alpha_mix =  0.700 |ddv_scf|^2 =  2.335E-09

      iter #   7 total cpu time :   921.3 secs   av.it.:  18.5
      thresh= 4.832E-06 alpha_mix =  0.700 |ddv_scf|^2 =  2.193E-10

      iter #   8 total cpu time :   926.5 secs   av.it.:  19.5
      thresh= 1.481E-06 alpha_mix =  0.700 |ddv_scf|^2 =  2.299E-11

      iter #   9 total cpu time :   932.0 secs   av.it.:  20.1
      thresh= 4.794E-07 alpha_mix =  0.700 |ddv_scf|^2 =  2.231E-10

      iter #  10 total cpu time :   936.4 secs   av.it.:  16.4
      thresh= 1.494E-06 alpha_mix =  0.700 |ddv_scf|^2 =  4.349E-11

      iter #  11 total cpu time :   941.1 secs   av.it.:  17.0
      thresh= 6.594E-07 alpha_mix =  0.700 |ddv_scf|^2 =  1.589E-12

      iter #  12 total cpu time :   946.8 secs   av.it.:  20.3
      thresh= 1.260E-07 alpha_mix =  0.700 |ddv_scf|^2 =  3.452E-11

      iter #  13 total cpu time :   951.4 secs   av.it.:  16.1
      thresh= 5.875E-07 alpha_mix =  0.700 |ddv_scf|^2 =  2.997E-12

      iter #  14 total cpu time :   956.2 secs   av.it.:  18.0
      thresh= 1.731E-07 alpha_mix =  0.700 |ddv_scf|^2 =  4.762E-13

      iter #  15 total cpu time :   961.2 secs   av.it.:  18.5
      thresh= 6.901E-08 alpha_mix =  0.700 |ddv_scf|^2 =  6.780E-13

      iter #  16 total cpu time :   966.0 secs   av.it.:  16.3
      thresh= 8.234E-08 alpha_mix =  0.700 |ddv_scf|^2 =  3.451E-14

      iter #  17 total cpu time :   971.4 secs   av.it.:  18.9
      thresh= 1.858E-08 alpha_mix =  0.700 |ddv_scf|^2 =  6.651E-14

      iter #  18 total cpu time :   976.3 secs   av.it.:  17.9
      thresh= 2.579E-08 alpha_mix =  0.700 |ddv_scf|^2 =  3.862E-15

      iter #  19 total cpu time :   981.4 secs   av.it.:  19.0
      thresh= 6.215E-09 alpha_mix =  0.700 |ddv_scf|^2 =  1.556E-14

      iter #  20 total cpu time :   986.2 secs   av.it.:  16.7
      thresh= 1.247E-08 alpha_mix =  0.700 |ddv_scf|^2 =  1.521E-15

      iter #  21 total cpu time :   991.4 secs   av.it.:  19.0
      thresh= 3.900E-09 alpha_mix =  0.700 |ddv_scf|^2 =  1.102E-14

      iter #  22 total cpu time :   995.6 secs   av.it.:  14.9
      thresh= 1.050E-08 alpha_mix =  0.700 |ddv_scf|^2 =  3.471E-16

     End of self-consistent calculation

     Convergence has been achieved 


     Representation #   2 mode #   2

     Self-consistent Calculation

      iter #   1 total cpu time :   999.6 secs   av.it.:  13.2
      thresh= 1.000E-02 alpha_mix =  0.700 |ddv_scf|^2 =  8.515E-05

      iter #   2 total cpu time :  1005.1 secs   av.it.:  20.0
      thresh= 9.227E-04 alpha_mix =  0.700 |ddv_scf|^2 =  6.788E-04

      iter #   3 total cpu time :  1010.0 secs   av.it.:  17.1
      thresh= 2.605E-03 alpha_mix =  0.700 |ddv_scf|^2 =  1.227E-05

      iter #   4 total cpu time :  1015.0 secs   av.it.:  17.2
      thresh= 3.503E-04 alpha_mix =  0.700 |ddv_scf|^2 =  6.602E-06

      iter #   5 total cpu time :  1020.0 secs   av.it.:  17.5
      thresh= 2.569E-04 alpha_mix =  0.700 |ddv_scf|^2 =  1.186E-08

      iter #   6 total cpu time :  1025.0 secs   av.it.:  18.8
      thresh= 1.089E-05 alpha_mix =  0.700 |ddv_scf|^2 =  1.158E-09

      iter #   7 total cpu time :  1030.3 secs   av.it.:  18.1
      thresh= 3.403E-06 alpha_mix =  0.700 |ddv_scf|^2 =  5.811E-10

      iter #   8 total cpu time :  1035.3 secs   av.it.:  17.1
      thresh= 2.411E-06 alpha_mix =  0.700 |ddv_scf|^2 =  3.083E-12

      iter #   9 total cpu time :  1040.9 secs   av.it.:  20.2
      thresh= 1.756E-07 alpha_mix =  0.700 |ddv_scf|^2 =  2.204E-12

      iter #  10 total cpu time :  1046.6 secs   av.it.:  19.9
      thresh= 1.485E-07 alpha_mix =  0.700 |ddv_scf|^2 =  1.133E-12

      iter #  11 total cpu time :  1051.8 secs   av.it.:  18.9
      thresh= 1.064E-07 alpha_mix =  0.700 |ddv_scf|^2 =  3.600E-12

      iter #  12 total cpu time :  1056.4 secs   av.it.:  16.9
      thresh= 1.897E-07 alpha_mix =  0.700 |ddv_scf|^2 =  1.898E-13

      iter #  13 total cpu time :  1061.4 secs   av.it.:  18.0
      thresh= 4.356E-08 alpha_mix =  0.700 |ddv_scf|^2 =  3.562E-13

      iter #  14 total cpu time :  1065.9 secs   av.it.:  16.0
      thresh= 5.968E-08 alpha_mix =  0.700 |ddv_scf|^2 =  2.520E-15

      iter #  15 total cpu time :  1071.2 secs   av.it.:  18.9
      thresh= 5.020E-09 alpha_mix =  0.700 |ddv_scf|^2 =  3.704E-15

      iter #  16 total cpu time :  1076.4 secs   av.it.:  18.4
      thresh= 6.086E-09 alpha_mix =  0.700 |ddv_scf|^2 =  5.632E-16

      iter #  17 total cpu time :  1081.7 secs   av.it.:  19.8
      thresh= 2.373E-09 alpha_mix =  0.700 |ddv_scf|^2 =  5.266E-16

      iter #  18 total cpu time :  1087.7 secs   av.it.:  18.3
      thresh= 2.295E-09 alpha_mix =  0.700 |ddv_scf|^2 =  2.617E-16

     End of self-consistent calculation

     Convergence has been achieved 


     Representation #   3 mode #   3

     Self-consistent Calculation

      iter #   1 total cpu time :  1090.9 secs   av.it.:   9.3
      thresh= 1.000E-02 alpha_mix =  0.700 |ddv_scf|^2 =  5.060E-06

      iter #   2 total cpu time :  1097.6 secs   av.it.:  19.6
      thresh= 2.250E-04 alpha_mix =  0.700 |ddv_scf|^2 =  2.409E-04

      iter #   3 total cpu time :  1102.1 secs   av.it.:  15.0
      thresh= 1.552E-03 alpha_mix =  0.700 |ddv_scf|^2 =  8.008E-07

      iter #   4 total cpu time :  1107.0 secs   av.it.:  17.8
      thresh= 8.949E-05 alpha_mix =  0.700 |ddv_scf|^2 =  9.280E-08

      iter #   5 total cpu time :  1112.0 secs   av.it.:  17.9
      thresh= 3.046E-05 alpha_mix =  0.700 |ddv_scf|^2 =  1.126E-08

      iter #   6 total cpu time :  1117.3 secs   av.it.:  18.3
      thresh= 1.061E-05 alpha_mix =  0.700 |ddv_scf|^2 =  5.019E-09

      iter #   7 total cpu time :  1122.4 secs   av.it.:  18.0
      thresh= 7.084E-06 alpha_mix =  0.700 |ddv_scf|^2 =  1.760E-09

      iter #   8 total cpu time :  1127.4 secs   av.it.:  18.9
      thresh= 4.195E-06 alpha_mix =  0.700 |ddv_scf|^2 =  1.883E-10

      iter #   9 total cpu time :  1133.0 secs   av.it.:  19.1
      thresh= 1.372E-06 alpha_mix =  0.700 |ddv_scf|^2 =  4.442E-11

      iter #  10 total cpu time :  1138.3 secs   av.it.:  19.5
      thresh= 6.665E-07 alpha_mix =  0.700 |ddv_scf|^2 =  3.993E-11

      iter #  11 total cpu time :  1143.7 secs   av.it.:  17.8
      thresh= 6.319E-07 alpha_mix =  0.700 |ddv_scf|^2 =  3.566E-11

      iter #  12 total cpu time :  1148.8 secs   av.it.:  17.6
      thresh= 5.971E-07 alpha_mix =  0.700 |ddv_scf|^2 =  8.467E-12

      iter #  13 total cpu time :  1154.3 secs   av.it.:  17.9
      thresh= 2.910E-07 alpha_mix =  0.700 |ddv_scf|^2 =  3.240E-11

      iter #  14 total cpu time :  1160.9 secs   av.it.:  17.1
      thresh= 5.692E-07 alpha_mix =  0.700 |ddv_scf|^2 =  1.514E-12

      iter #  15 total cpu time :  1179.4 secs   av.it.:  19.2
      thresh= 1.231E-07 alpha_mix =  0.700 |ddv_scf|^2 =  2.772E-12

      iter #  16 total cpu time :  1184.5 secs   av.it.:  17.2
      thresh= 1.665E-07 alpha_mix =  0.700 |ddv_scf|^2 =  1.217E-13

      iter #  17 total cpu time :  1190.3 secs   av.it.:  19.4
      thresh= 3.488E-08 alpha_mix =  0.700 |ddv_scf|^2 =  6.789E-14

      iter #  18 total cpu time :  1195.6 secs   av.it.:  18.6
      thresh= 2.606E-08 alpha_mix =  0.700 |ddv_scf|^2 =  5.037E-13

      iter #  19 total cpu time :  1200.3 secs   av.it.:  15.3
      thresh= 7.097E-08 alpha_mix =  0.700 |ddv_scf|^2 =  5.079E-15

      iter #  20 total cpu time :  1205.8 secs   av.it.:  18.4
      thresh= 7.127E-09 alpha_mix =  0.700 |ddv_scf|^2 =  8.315E-16

      iter #  21 total cpu time :  1211.0 secs   av.it.:  19.2
      thresh= 2.884E-09 alpha_mix =  0.700 |ddv_scf|^2 =  3.743E-16

     End of self-consistent calculation

     Convergence has been achieved 


     Representation #   4 mode #   4

     Self-consistent Calculation

      iter #   1 total cpu time :  1214.8 secs   av.it.:   9.3
      thresh= 1.000E-02 alpha_mix =  0.700 |ddv_scf|^2 =  4.575E-06

      iter #   2 total cpu time :  1220.4 secs   av.it.:  19.6
      thresh= 2.139E-04 alpha_mix =  0.700 |ddv_scf|^2 =  2.168E-04

      iter #   3 total cpu time :  1225.7 secs   av.it.:  15.0
      thresh= 1.472E-03 alpha_mix =  0.700 |ddv_scf|^2 =  8.681E-07

      iter #   4 total cpu time :  1230.7 secs   av.it.:  17.8
      thresh= 9.317E-05 alpha_mix =  0.700 |ddv_scf|^2 =  9.147E-08

      iter #   5 total cpu time :  1235.6 secs   av.it.:  18.0
      thresh= 3.024E-05 alpha_mix =  0.700 |ddv_scf|^2 =  1.190E-08

      iter #   6 total cpu time :  1241.0 secs   av.it.:  18.2
      thresh= 1.091E-05 alpha_mix =  0.700 |ddv_scf|^2 =  5.027E-09

      iter #   7 total cpu time :  1245.9 secs   av.it.:  18.1
      thresh= 7.090E-06 alpha_mix =  0.700 |ddv_scf|^2 =  2.021E-09

      iter #   8 total cpu time :  1251.5 secs   av.it.:  18.9
      thresh= 4.495E-06 alpha_mix =  0.700 |ddv_scf|^2 =  1.966E-10

      iter #   9 total cpu time :  1256.7 secs   av.it.:  19.2
      thresh= 1.402E-06 alpha_mix =  0.700 |ddv_scf|^2 =  4.949E-11

      iter #  10 total cpu time :  1261.8 secs   av.it.:  19.3
      thresh= 7.035E-07 alpha_mix =  0.700 |ddv_scf|^2 =  6.919E-11

      iter #  11 total cpu time :  1266.7 secs   av.it.:  17.3
      thresh= 8.318E-07 alpha_mix =  0.700 |ddv_scf|^2 =  7.077E-11

      iter #  12 total cpu time :  1271.4 secs   av.it.:  17.1
      thresh= 8.413E-07 alpha_mix =  0.700 |ddv_scf|^2 =  3.289E-12

      iter #  13 total cpu time :  1276.6 secs   av.it.:  18.1
      thresh= 1.813E-07 alpha_mix =  0.700 |ddv_scf|^2 =  1.631E-11

      iter #  14 total cpu time :  1281.3 secs   av.it.:  16.9
      thresh= 4.039E-07 alpha_mix =  0.700 |ddv_scf|^2 =  8.233E-13

      iter #  15 total cpu time :  1286.5 secs   av.it.:  19.5
      thresh= 9.074E-08 alpha_mix =  0.700 |ddv_scf|^2 =  2.236E-12

      iter #  16 total cpu time :  1291.2 secs   av.it.:  16.7
      thresh= 1.495E-07 alpha_mix =  0.700 |ddv_scf|^2 =  5.595E-14

      iter #  17 total cpu time :  1296.4 secs   av.it.:  19.3
      thresh= 2.365E-08 alpha_mix =  0.700 |ddv_scf|^2 =  5.267E-14

      iter #  18 total cpu time :  1301.3 secs   av.it.:  17.4
      thresh= 2.295E-08 alpha_mix =  0.700 |ddv_scf|^2 =  1.963E-13

      iter #  19 total cpu time :  1305.9 secs   av.it.:  16.4
      thresh= 4.431E-08 alpha_mix =  0.700 |ddv_scf|^2 =  3.571E-15

      iter #  20 total cpu time :  1311.2 secs   av.it.:  18.4
      thresh= 5.976E-09 alpha_mix =  0.700 |ddv_scf|^2 =  7.718E-16

      iter #  21 total cpu time :  1317.3 secs   av.it.:  18.9
      thresh= 2.778E-09 alpha_mix =  0.700 |ddv_scf|^2 =  1.550E-16

     End of self-consistent calculation

     Convergence has been achieved 


     Representation #   5 mode #   5

     Self-consistent Calculation

      iter #   1 total cpu time :  1321.4 secs   av.it.:  13.6
      thresh= 1.000E-02 alpha_mix =  0.700 |ddv_scf|^2 =  4.489E-04

      iter #   2 total cpu time :  1326.6 secs   av.it.:  19.2
      thresh= 2.119E-03 alpha_mix =  0.700 |ddv_scf|^2 =  1.778E-02

      iter #   3 total cpu time :  1331.4 secs   av.it.:  15.6
      thresh= 1.000E-02 alpha_mix =  0.700 |ddv_scf|^2 =  2.915E-05

      iter #   4 total cpu time :  1336.5 secs   av.it.:  18.9
      thresh= 5.399E-04 alpha_mix =  0.700 |ddv_scf|^2 =  1.136E-05

      iter #   5 total cpu time :  1341.1 secs   av.it.:  17.1
      thresh= 3.370E-04 alpha_mix =  0.700 |ddv_scf|^2 =  8.748E-07

      iter #   6 total cpu time :  1346.1 secs   av.it.:  17.9
      thresh= 9.353E-05 alpha_mix =  0.700 |ddv_scf|^2 =  1.625E-08

      iter #   7 total cpu time :  1351.3 secs   av.it.:  17.7
      thresh= 1.275E-05 alpha_mix =  0.700 |ddv_scf|^2 =  5.501E-10

      iter #   8 total cpu time :  1356.4 secs   av.it.:  19.0
      thresh= 2.345E-06 alpha_mix =  0.700 |ddv_scf|^2 =  1.056E-09

      iter #   9 total cpu time :  1361.4 secs   av.it.:  17.7
      thresh= 3.250E-06 alpha_mix =  0.700 |ddv_scf|^2 =  3.368E-09

      iter #  10 total cpu time :  1366.0 secs   av.it.:  17.1
      thresh= 5.803E-06 alpha_mix =  0.700 |ddv_scf|^2 =  1.505E-09

      iter #  11 total cpu time :  1370.8 secs   av.it.:  17.9
      thresh= 3.880E-06 alpha_mix =  0.700 |ddv_scf|^2 =  9.698E-11

      iter #  12 total cpu time :  1375.9 secs   av.it.:  18.6
      thresh= 9.848E-07 alpha_mix =  0.700 |ddv_scf|^2 =  2.883E-11

      iter #  13 total cpu time :  1380.8 secs   av.it.:  18.4
      thresh= 5.369E-07 alpha_mix =  0.700 |ddv_scf|^2 =  1.139E-11

      iter #  14 total cpu time :  1386.0 secs   av.it.:  18.6
      thresh= 3.374E-07 alpha_mix =  0.700 |ddv_scf|^2 =  1.769E-11

      iter #  15 total cpu time :  1391.0 secs   av.it.:  16.9
      thresh= 4.206E-07 alpha_mix =  0.700 |ddv_scf|^2 =  1.500E-12

      iter #  16 total cpu time :  1395.9 secs   av.it.:  16.4
      thresh= 1.225E-07 alpha_mix =  0.700 |ddv_scf|^2 =  5.560E-13

      iter #  17 total cpu time :  1401.1 secs   av.it.:  18.1
      thresh= 7.456E-08 alpha_mix =  0.700 |ddv_scf|^2 =  5.476E-14

      iter #  18 total cpu time :  1406.2 secs   av.it.:  18.7
      thresh= 2.340E-08 alpha_mix =  0.700 |ddv_scf|^2 =  5.970E-15

      iter #  19 total cpu time :  1411.4 secs   av.it.:  19.5
      thresh= 7.726E-09 alpha_mix =  0.700 |ddv_scf|^2 =  6.960E-15

      iter #  20 total cpu time :  1417.3 secs   av.it.:  17.8
      thresh= 8.343E-09 alpha_mix =  0.700 |ddv_scf|^2 =  2.707E-16

     End of self-consistent calculation

     Convergence has been achieved 


     Representation #   6 mode #   6

     Self-consistent Calculation

      iter #   1 total cpu time :  1420.5 secs   av.it.:   9.5
      thresh= 1.000E-02 alpha_mix =  0.700 |ddv_scf|^2 =  1.191E-05

      iter #   2 total cpu time :  1425.6 secs   av.it.:  19.0
      thresh= 3.451E-04 alpha_mix =  0.700 |ddv_scf|^2 =  4.219E-04

      iter #   3 total cpu time :  1430.2 secs   av.it.:  15.2
      thresh= 2.054E-03 alpha_mix =  0.700 |ddv_scf|^2 =  3.749E-06

      iter #   4 total cpu time :  1435.3 secs   av.it.:  17.1
      thresh= 1.936E-04 alpha_mix =  0.700 |ddv_scf|^2 =  4.232E-08

      iter #   5 total cpu time :  1440.4 secs   av.it.:  18.9
      thresh= 2.057E-05 alpha_mix =  0.700 |ddv_scf|^2 =  6.196E-08

      iter #   6 total cpu time :  1445.1 secs   av.it.:  17.1
      thresh= 2.489E-05 alpha_mix =  0.700 |ddv_scf|^2 =  1.648E-09

      iter #   7 total cpu time :  1450.7 secs   av.it.:  18.6
      thresh= 4.060E-06 alpha_mix =  0.700 |ddv_scf|^2 =  1.219E-10

      iter #   8 total cpu time :  1455.9 secs   av.it.:  19.7
      thresh= 1.104E-06 alpha_mix =  0.700 |ddv_scf|^2 =  1.775E-11

      iter #   9 total cpu time :  1461.3 secs   av.it.:  20.1
      thresh= 4.213E-07 alpha_mix =  0.700 |ddv_scf|^2 =  1.488E-10

      iter #  10 total cpu time :  1466.8 secs   av.it.:  16.4
      thresh= 1.220E-06 alpha_mix =  0.700 |ddv_scf|^2 =  3.185E-11

      iter #  11 total cpu time :  1471.9 secs   av.it.:  17.0
      thresh= 5.644E-07 alpha_mix =  0.700 |ddv_scf|^2 =  1.166E-12

      iter #  12 total cpu time :  1478.0 secs   av.it.:  20.3
      thresh= 1.080E-07 alpha_mix =  0.700 |ddv_scf|^2 =  2.830E-11

      iter #  13 total cpu time :  1482.5 secs   av.it.:  16.0
      thresh= 5.320E-07 alpha_mix =  0.700 |ddv_scf|^2 =  1.316E-12

      iter #  14 total cpu time :  1487.3 secs   av.it.:  17.9
      thresh= 1.147E-07 alpha_mix =  0.700 |ddv_scf|^2 =  2.851E-13

      iter #  15 total cpu time :  1492.4 secs   av.it.:  18.4
      thresh= 5.339E-08 alpha_mix =  0.700 |ddv_scf|^2 =  2.127E-13

      iter #  16 total cpu time :  1497.7 secs   av.it.:  16.6
      thresh= 4.611E-08 alpha_mix =  0.700 |ddv_scf|^2 =  9.779E-15

      iter #  17 total cpu time :  1503.0 secs   av.it.:  19.4
      thresh= 9.889E-09 alpha_mix =  0.700 |ddv_scf|^2 =  1.837E-14

      iter #  18 total cpu time :  1508.0 secs   av.it.:  17.4
      thresh= 1.356E-08 alpha_mix =  0.700 |ddv_scf|^2 =  1.518E-15

      iter #  19 total cpu time :  1513.0 secs   av.it.:  18.4
      thresh= 3.896E-09 alpha_mix =  0.700 |ddv_scf|^2 =  9.548E-16

      iter #  20 total cpu time :  1517.9 secs   av.it.:  17.9
      thresh= 3.090E-09 alpha_mix =  0.700 |ddv_scf|^2 =  1.808E-16

     End of self-consistent calculation

     Convergence has been achieved 


     Representation #   7 mode #   7

     Self-consistent Calculation

      iter #   1 total cpu time :  1520.7 secs   av.it.:   8.0
      thresh= 1.000E-02 alpha_mix =  0.700 |ddv_scf|^2 =  1.853E-08

      iter #   2 total cpu time :  1526.4 secs   av.it.:  20.7
      thresh= 1.361E-05 alpha_mix =  0.700 |ddv_scf|^2 =  3.405E-09

      iter #   3 total cpu time :  1531.8 secs   av.it.:  20.4
      thresh= 5.835E-06 alpha_mix =  0.700 |ddv_scf|^2 =  6.234E-10

      iter #   4 total cpu time :  1536.9 secs   av.it.:  19.2
[...]
     ./pp/Se.upf
     MD5 check sum: cfe1483cd39788255e734f67871220b5
     Pseudo is Norm-conserving, Zval =  6.0
     Generated using ONCVPSP code by D. R. Hamann
     Using radial grid of 1214 points, 10 beta functions with: 
                l(1) =   0
                l(2) =   0
                l(3) =   1
                l(4) =   1
                l(5) =   1
                l(6) =   1
                l(7) =   2
                l(8) =   2
                l(9) =   2
               l(10) =   2

     Mode symmetry, C_3 (3)     point group:


     Atomic displacements:
     There are    9 irreducible representations

     Representation     1      1 modes -  To be done

     Representation     2      1 modes -  To be done

     Representation     3      1 modes -  To be done

     Representation     4      1 modes -  To be done

     Representation     5      1 modes -  To be done

     Representation     6      1 modes -  To be done

     Representation     7      1 modes -  To be done

     Representation     8      1 modes -  To be done

     Representation     9      1 modes -  To be done



     Alpha used in Ewald sum =   2.8000
     PHONON       :      3h10m CPU      3h17m WALL



     Representation #   1 mode #   1

     Self-consistent Calculation

      iter #   1 total cpu time : 11867.6 secs   av.it.:   8.8
      thresh= 1.000E-02 alpha_mix =  0.700 |ddv_scf|^2 =  2.245E-07

      iter #   2 total cpu time : 11871.0 secs   av.it.:  20.2
      thresh= 4.738E-05 alpha_mix =  0.700 |ddv_scf|^2 =  2.548E-07

      iter #   3 total cpu time : 11874.3 secs   av.it.:  18.9
      thresh= 5.047E-05 alpha_mix =  0.700 |ddv_scf|^2 =  8.561E-09

      iter #   4 total cpu time : 11877.7 secs   av.it.:  19.2
      thresh= 9.253E-06 alpha_mix =  0.700 |ddv_scf|^2 =  3.119E-11

      iter #   5 total cpu time : 11881.1 secs   av.it.:  18.9
      thresh= 5.584E-07 alpha_mix =  0.700 |ddv_scf|^2 =  1.779E-12

      iter #   6 total cpu time : 11884.5 secs   av.it.:  19.8
      thresh= 1.334E-07 alpha_mix =  0.700 |ddv_scf|^2 =  2.987E-13

      iter #   7 total cpu time : 11887.8 secs   av.it.:  19.3
      thresh= 5.466E-08 alpha_mix =  0.700 |ddv_scf|^2 =  1.224E-14

      iter #   8 total cpu time : 11892.0 secs   av.it.:  18.7
      thresh= 1.106E-08 alpha_mix =  0.700 |ddv_scf|^2 =  1.056E-16

     End of self-consistent calculation

     Convergence has been achieved 


     Representation #   2 mode #   2

     Self-consistent Calculation

      iter #   1 total cpu time : 11894.0 secs   av.it.:   8.8
      thresh= 1.000E-02 alpha_mix =  0.700 |ddv_scf|^2 =  2.245E-07

      iter #   2 total cpu time : 11897.5 secs   av.it.:  20.2
      thresh= 4.738E-05 alpha_mix =  0.700 |ddv_scf|^2 =  2.548E-07

      iter #   3 total cpu time : 11900.8 secs   av.it.:  18.9
      thresh= 5.048E-05 alpha_mix =  0.700 |ddv_scf|^2 =  8.565E-09

      iter #   4 total cpu time : 11904.6 secs   av.it.:  19.2
      thresh= 9.255E-06 alpha_mix =  0.700 |ddv_scf|^2 =  3.251E-11

      iter #   5 total cpu time : 11908.1 secs   av.it.:  18.9
      thresh= 5.702E-07 alpha_mix =  0.700 |ddv_scf|^2 =  1.818E-12

      iter #   6 total cpu time : 11911.7 secs   av.it.:  19.8
      thresh= 1.348E-07 alpha_mix =  0.700 |ddv_scf|^2 =  3.112E-13

      iter #   7 total cpu time : 11915.0 secs   av.it.:  19.3
      thresh= 5.578E-08 alpha_mix =  0.700 |ddv_scf|^2 =  1.204E-14

      iter #   8 total cpu time : 11918.8 secs   av.it.:  18.7
      thresh= 1.097E-08 alpha_mix =  0.700 |ddv_scf|^2 =  1.466E-16

     End of self-consistent calculation

     Convergence has been achieved 


     Representation #   3 mode #   3

     Self-consistent Calculation

      iter #   1 total cpu time : 11921.4 secs   av.it.:  12.9
      thresh= 1.000E-02 alpha_mix =  0.700 |ddv_scf|^2 =  2.325E-05

      iter #   2 total cpu time : 11925.0 secs   av.it.:  19.9
      thresh= 4.822E-04 alpha_mix =  0.700 |ddv_scf|^2 =  5.710E-05

      iter #   3 total cpu time : 11928.3 secs   av.it.:  18.1
      thresh= 7.557E-04 alpha_mix =  0.700 |ddv_scf|^2 =  9.193E-09

      iter #   4 total cpu time : 11931.9 secs   av.it.:  19.4
      thresh= 9.588E-06 alpha_mix =  0.700 |ddv_scf|^2 =  6.328E-10

      iter #   5 total cpu time : 11935.7 secs   av.it.:  18.9
      thresh= 2.516E-06 alpha_mix =  0.700 |ddv_scf|^2 =  5.493E-11

      iter #   6 total cpu time : 11938.9 secs   av.it.:  18.4
      thresh= 7.412E-07 alpha_mix =  0.700 |ddv_scf|^2 =  9.366E-13

      iter #   7 total cpu time : 11943.9 secs   av.it.:  18.4
      thresh= 9.678E-08 alpha_mix =  0.700 |ddv_scf|^2 =  1.210E-14

      iter #   8 total cpu time : 11947.4 secs   av.it.:  19.3
      thresh= 1.100E-08 alpha_mix =  0.700 |ddv_scf|^2 =  4.344E-16

     End of self-consistent calculation

     Convergence has been achieved 


     Representation #   4 mode #   4

     Self-consistent Calculation

      iter #   1 total cpu time : 11949.7 secs   av.it.:   8.5
      thresh= 1.000E-02 alpha_mix =  0.700 |ddv_scf|^2 =  8.733E-08

      iter #   2 total cpu time : 11953.3 secs   av.it.:  20.5
      thresh= 2.955E-05 alpha_mix =  0.700 |ddv_scf|^2 =  1.180E-07

      iter #   3 total cpu time : 11956.6 secs   av.it.:  19.0
      thresh= 3.436E-05 alpha_mix =  0.700 |ddv_scf|^2 =  5.212E-09

      iter #   4 total cpu time : 11960.1 secs   av.it.:  19.0
      thresh= 7.219E-06 alpha_mix =  0.700 |ddv_scf|^2 =  1.062E-10

      iter #   5 total cpu time : 11963.6 secs   av.it.:  19.7
      thresh= 1.031E-06 alpha_mix =  0.700 |ddv_scf|^2 =  9.556E-12

      iter #   6 total cpu time : 11967.0 secs   av.it.:  19.7
      thresh= 3.091E-07 alpha_mix =  0.700 |ddv_scf|^2 =  5.658E-13

      iter #   7 total cpu time : 11970.5 secs   av.it.:  19.9
      thresh= 7.522E-08 alpha_mix =  0.700 |ddv_scf|^2 =  4.074E-14

      iter #   8 total cpu time : 11973.7 secs   av.it.:  18.8
      thresh= 2.018E-08 alpha_mix =  0.700 |ddv_scf|^2 =  7.126E-15

      iter #   9 total cpu time : 11977.7 secs   av.it.:  19.8
      thresh= 8.442E-09 alpha_mix =  0.700 |ddv_scf|^2 =  1.990E-15

      iter #  10 total cpu time : 11981.1 secs   av.it.:  19.1
      thresh= 4.461E-09 alpha_mix =  0.700 |ddv_scf|^2 =  8.762E-17

     End of self-consistent calculation

     Convergence has been achieved 


     Representation #   5 mode #   5

     Self-consistent Calculation

      iter #   1 total cpu time : 11983.3 secs   av.it.:   8.5
      thresh= 1.000E-02 alpha_mix =  0.700 |ddv_scf|^2 =  8.755E-08

      iter #   2 total cpu time : 11987.0 secs   av.it.:  20.4
      thresh= 2.959E-05 alpha_mix =  0.700 |ddv_scf|^2 =  1.182E-07

      iter #   3 total cpu time : 11990.6 secs   av.it.:  19.0
      thresh= 3.437E-05 alpha_mix =  0.700 |ddv_scf|^2 =  5.286E-09

      iter #   4 total cpu time : 11994.0 secs   av.it.:  19.0
      thresh= 7.271E-06 alpha_mix =  0.700 |ddv_scf|^2 =  1.206E-10

      iter #   5 total cpu time : 11997.4 secs   av.it.:  19.7
      thresh= 1.098E-06 alpha_mix =  0.700 |ddv_scf|^2 =  1.390E-11

      iter #   6 total cpu time : 12000.9 secs   av.it.:  19.5
      thresh= 3.728E-07 alpha_mix =  0.700 |ddv_scf|^2 =  1.342E-12

      iter #   7 total cpu time : 12004.5 secs   av.it.:  19.7
      thresh= 1.159E-07 alpha_mix =  0.700 |ddv_scf|^2 =  3.699E-14

      iter #   8 total cpu time : 12007.8 secs   av.it.:  18.8
      thresh= 1.923E-08 alpha_mix =  0.700 |ddv_scf|^2 =  3.410E-15

      iter #   9 total cpu time : 12011.4 secs   av.it.:  20.1
      thresh= 5.839E-09 alpha_mix =  0.700 |ddv_scf|^2 =  3.421E-16

     End of self-consistent calculation

     Convergence has been achieved 


     Representation #   6 mode #   6

     Self-consistent Calculation

      iter #   1 total cpu time : 12014.1 secs   av.it.:  13.0
      thresh= 1.000E-02 alpha_mix =  0.700 |ddv_scf|^2 =  2.408E-05

      iter #   2 total cpu time : 12017.6 secs   av.it.:  20.0
      thresh= 4.907E-04 alpha_mix =  0.700 |ddv_scf|^2 =  6.599E-05

      iter #   3 total cpu time : 12021.0 secs   av.it.:  18.2
      thresh= 8.124E-04 alpha_mix =  0.700 |ddv_scf|^2 =  9.459E-08

      iter #   4 total cpu time : 12024.4 secs   av.it.:  19.1
      thresh= 3.076E-05 alpha_mix =  0.700 |ddv_scf|^2 =  1.254E-09

      iter #   5 total cpu time : 12027.8 secs   av.it.:  19.0
      thresh= 3.542E-06 alpha_mix =  0.700 |ddv_scf|^2 =  2.096E-11

      iter #   6 total cpu time : 12031.2 secs   av.it.:  18.9
      thresh= 4.578E-07 alpha_mix =  0.700 |ddv_scf|^2 =  2.646E-12

      iter #   7 total cpu time : 12034.6 secs   av.it.:  19.0
      thresh= 1.627E-07 alpha_mix =  0.700 |ddv_scf|^2 =  6.978E-14

      iter #   8 total cpu time : 12038.0 secs   av.it.:  18.6
      thresh= 2.642E-08 alpha_mix =  0.700 |ddv_scf|^2 =  1.693E-15

      iter #   9 total cpu time : 12041.5 secs   av.it.:  20.0
      thresh= 4.115E-09 alpha_mix =  0.700 |ddv_scf|^2 =  2.733E-16

     End of self-consistent calculation

     Convergence has been achieved 


     Representation #   7 mode #   7

     Self-consistent Calculation

      iter #   1 total cpu time : 12043.5 secs   av.it.:   8.9
      thresh= 1.000E-02 alpha_mix =  0.700 |ddv_scf|^2 =  6.650E-07

      iter #   2 total cpu time : 12047.0 secs   av.it.:  20.4
      thresh= 8.155E-05 alpha_mix =  0.700 |ddv_scf|^2 =  1.098E-05

      iter #   3 total cpu time : 12050.1 secs   av.it.:  16.9
      thresh= 3.314E-04 alpha_mix =  0.700 |ddv_scf|^2 =  1.733E-07

      iter #   4 total cpu time : 12053.5 secs   av.it.:  18.7
      thresh= 4.164E-05 alpha_mix =  0.700 |ddv_scf|^2 =  2.824E-09

      iter #   5 total cpu time : 12057.0 secs   av.it.:  19.5
      thresh= 5.314E-06 alpha_mix =  0.700 |ddv_scf|^2 =  7.427E-11

      iter #   6 total cpu time : 12060.4 secs   av.it.:  19.1
      thresh= 8.618E-07 alpha_mix =  0.700 |ddv_scf|^2 =  4.457E-12

      iter #   7 total cpu time : 12063.7 secs   av.it.:  19.0
      thresh= 2.111E-07 alpha_mix =  0.700 |ddv_scf|^2 =  5.141E-13

      iter #   8 total cpu time : 12067.1 secs   av.it.:  19.1
      thresh= 7.170E-08 alpha_mix =  0.700 |ddv_scf|^2 =  1.129E-14

      iter #   9 total cpu time : 12070.6 secs   av.it.:  19.2
      thresh= 1.063E-08 alpha_mix =  0.700 |ddv_scf|^2 =  5.419E-14

      iter #  10 total cpu time : 12073.9 secs   av.it.:  17.7
      thresh= 2.328E-08 alpha_mix =  0.700 |ddv_scf|^2 =  3.904E-17

     End of self-consistent calculation

     Convergence has been achieved 


     Representation #   8 mode #   8

     Self-consistent Calculation

      iter #   1 total cpu time : 12076.4 secs   av.it.:  12.5
      thresh= 1.000E-02 alpha_mix =  0.700 |ddv_scf|^2 =  1.150E-05

      iter #   2 total cpu time : 12079.8 secs   av.it.:  19.9
      thresh= 3.391E-04 alpha_mix =  0.700 |ddv_scf|^2 =  1.932E-05

      iter #   3 total cpu time : 12083.1 secs   av.it.:  18.5
      thresh= 4.395E-04 alpha_mix =  0.700 |ddv_scf|^2 =  7.697E-10

      iter #   4 total cpu time : 12086.5 secs   av.it.:  19.6
      thresh= 2.774E-06 alpha_mix =  0.700 |ddv_scf|^2 =  1.558E-10

      iter #   5 total cpu time : 12090.1 secs   av.it.:  19.8
      thresh= 1.248E-06 alpha_mix =  0.700 |ddv_scf|^2 =  3.980E-11

      iter #   6 total cpu time : 12093.5 secs   av.it.:  19.7
      thresh= 6.309E-07 alpha_mix =  0.700 |ddv_scf|^2 =  1.942E-10

      iter #   7 total cpu time : 12096.6 secs   av.it.:  17.5
      thresh= 1.394E-06 alpha_mix =  0.700 |ddv_scf|^2 =  6.085E-14

      iter #   8 total cpu time : 12100.1 secs   av.it.:  19.2
      thresh= 2.467E-08 alpha_mix =  0.700 |ddv_scf|^2 =  1.915E-15

      iter #   9 total cpu time : 12103.4 secs   av.it.:  19.1
      thresh= 4.376E-09 alpha_mix =  0.700 |ddv_scf|^2 =  3.690E-17

     End of self-consistent calculation

     Convergence has been achieved 


     Representation #   9 mode #   9

     Self-consistent Calculation

      iter #   1 total cpu time : 12105.4 secs   av.it.:   8.9
      thresh= 1.000E-02 alpha_mix =  0.700 |ddv_scf|^2 =  6.651E-07

      iter #   2 total cpu time : 12109.0 secs   av.it.:  20.4
      thresh= 8.155E-05 alpha_mix =  0.700 |ddv_scf|^2 =  1.099E-05

      iter #   3 total cpu time : 12112.5 secs   av.it.:  16.9
      thresh= 3.314E-04 alpha_mix =  0.700 |ddv_scf|^2 =  1.733E-07

      iter #   4 total cpu time : 12115.9 secs   av.it.:  18.8
      thresh= 4.164E-05 alpha_mix =  0.700 |ddv_scf|^2 =  2.798E-09

      iter #   5 total cpu time : 12119.3 secs   av.it.:  19.5
      thresh= 5.290E-06 alpha_mix =  0.700 |ddv_scf|^2 =  7.320E-11

      iter #   6 total cpu time : 12123.0 secs   av.it.:  19.1
      thresh= 8.556E-07 alpha_mix =  0.700 |ddv_scf|^2 =  2.408E-12

      iter #   7 total cpu time : 12126.4 secs   av.it.:  19.4
      thresh= 1.552E-07 alpha_mix =  0.700 |ddv_scf|^2 =  4.445E-13

      iter #   8 total cpu time : 12129.7 secs   av.it.:  19.1
      thresh= 6.667E-08 alpha_mix =  0.700 |ddv_scf|^2 =  1.123E-14

      iter #   9 total cpu time : 12133.1 secs   av.it.:  19.1
      thresh= 1.060E-08 alpha_mix =  0.700 |ddv_scf|^2 =  4.798E-14

      iter #  10 total cpu time : 12136.4 secs   av.it.:  17.7
      thresh= 2.190E-08 alpha_mix =  0.700 |ddv_scf|^2 =  3.035E-17

     End of self-consistent calculation

     Convergence has been achieved 
 
     Number of q in the star =    2
     List of q in the star:
          1   0.333333333   0.577350269   0.000000000
          2  -0.333333333   0.577350269   0.000000000

     Diagonalizing the dynamical matrix

     q = (    0.333333333   0.577350269   0.000000000 ) 

 **************************************************************************
     freq (    1) =       2.824375 [THz] =      94.211005 [cm-1]
     freq (    2) =       3.605272 [THz] =     120.258932 [cm-1]
     freq (    3) =       4.042188 [THz] =     134.832892 [cm-1]
     freq (    4) =       5.930106 [THz] =     197.807039 [cm-1]
     freq (    5) =       6.132291 [THz] =     204.551217 [cm-1]
     freq (    6) =       6.170079 [THz] =     205.811697 [cm-1]
     freq (    7) =       7.287230 [THz] =     243.075816 [cm-1]
     freq (    8) =       7.311003 [THz] =     243.868795 [cm-1]
     freq (    9) =       7.453559 [THz] =     248.623981 [cm-1]
 **************************************************************************

     Mode symmetry, C_3 (3)     point group:

     freq (   1-   1) =         94.2  [cm-1]   --> E                  
     freq (   2-   2) =        120.3  [cm-1]   --> E*                 
     freq (   3-   3) =        134.8  [cm-1]   --> A                  
     freq (   4-   4) =        197.8  [cm-1]   --> E                  
     freq (   5-   5) =        204.6  [cm-1]   --> E*                 
     freq (   6-   6) =        205.8  [cm-1]   --> A                  
     freq (   7-   7) =        243.1  [cm-1]   --> E*                 
     freq (   8-   8) =        243.9  [cm-1]   --> A                  
     freq (   9-   9) =        248.6  [cm-1]   --> E                  
 
     init_run     :      0.55s CPU      1.35s WALL (      11 calls)
     electrons    :    101.63s CPU    104.31s WALL (      11 calls)

     Called by init_run:
     wfcinit      :      0.00s CPU      0.27s WALL (      11 calls)
     potinit      :      0.09s CPU      0.54s WALL (      11 calls)
     hinit0       :      0.23s CPU      0.29s WALL (      11 calls)

     Called by electrons:
     c_bands      :    101.52s CPU    104.20s WALL (      11 calls)
     v_of_rho     :      0.04s CPU      0.05s WALL (      12 calls)

     Called by c_bands:
     init_us_2    :      3.35s CPU      3.47s WALL (   20503 calls)
     cegterg      :     86.47s CPU     88.23s WALL (     254 calls)

     Called by *egterg:
     cdiaghg      :     15.46s CPU     15.53s WALL (    4050 calls)
     h_psi        :   9258.80s CPU   9507.44s WALL (  648970 calls)
     g_psi        :      0.07s CPU      0.07s WALL (    3796 calls)

     Called by h_psi:
     h_psi:calbec :    263.96s CPU    270.07s WALL (  648970 calls)
     vloc_psi     :   8456.14s CPU   8693.10s WALL (  648970 calls)
     add_vuspsi   :    528.36s CPU    534.40s WALL (  648970 calls)

     General routines
     calbec       :    472.41s CPU    480.94s WALL ( 1299576 calls)
     fft          :      6.92s CPU      7.05s WALL (   18618 calls)
     ffts         :      0.60s CPU      0.67s WALL (    2124 calls)
     fftw         :   9158.63s CPU   9424.00s WALL (63646488 calls)
     davcio       :     10.27s CPU     21.60s WALL (  111111 calls)
 
     Parallel routines
     fft_scatt_xy :    304.26s CPU    310.75s WALL (63667230 calls)
     fft_scatt_yz :   6935.99s CPU   7132.67s WALL (63667230 calls)
 
     PHONON       :      3h14m CPU      3h22m WALL

     INITIALIZATION: 
     phq_setup    :      0.11s CPU      1.03s WALL (      12 calls)
     phq_init     :     17.27s CPU     17.68s WALL (      12 calls)
 
     phq_init     :     17.27s CPU     17.68s WALL (      12 calls)
     init_vloc    :      0.05s CPU      0.05s WALL (      12 calls)
     init_us_1    :      0.18s CPU      0.25s WALL (      12 calls)
 
     DYNAMICAL MATRIX:
     dynmat0      :     15.61s CPU     15.98s WALL (      12 calls)
     phqscf       :  11493.01s CPU  11948.72s WALL (      12 calls)
     dynmatrix    :      0.58s CPU      0.82s WALL (      12 calls)
 
     phqscf       :  11493.01s CPU  11948.72s WALL (      12 calls)
     solve_linter :  11488.49s CPU  11936.62s WALL (     105 calls)
     drhodv       :      4.35s CPU      4.51s WALL (     105 calls)
 
     dynmat0      :     15.61s CPU     15.98s WALL (      12 calls)
     dynmat_us    :     15.38s CPU     15.44s WALL (      12 calls)
     d2ionq       :      0.21s CPU      0.21s WALL (      12 calls)
 
     dynmat_us    :     15.38s CPU     15.44s WALL (      12 calls)
 
     phqscf       :  11493.01s CPU  11948.72s WALL (      12 calls)
     solve_linter :  11488.49s CPU  11936.62s WALL (     105 calls)
 
     solve_linter :  11488.49s CPU  11936.62s WALL (     105 calls)
     dvqpsi_us    :     43.11s CPU     44.16s WALL (    1179 calls)
     ortho        :     14.52s CPU     14.91s WALL (   18918 calls)
     cgsolve      :   9831.69s CPU  10084.98s WALL (   18918 calls)
     incdrhoscf   :    582.24s CPU    599.04s WALL (   18912 calls)
     vpsifft      :    420.09s CPU    436.40s WALL (   17673 calls)
     dv_of_drho   :      7.31s CPU      7.41s WALL (    1674 calls)
     mix_pot      :     15.34s CPU     35.89s WALL (    1629 calls)
     psymdvscf    :     26.24s CPU     26.41s WALL (     695 calls)
 
     dvqpsi_us    :     43.11s CPU     44.16s WALL (    1179 calls)
     dvqpsi_us_on :     15.19s CPU     15.31s WALL (    1179 calls)
 
     cgsolve      :   9831.69s CPU  10084.98s WALL (   18918 calls)
     ch_psi       :   9668.25s CPU   9919.37s WALL (  644666 calls)
 
     ch_psi       :   9668.25s CPU   9919.37s WALL (  644666 calls)
     h_psi        :   9258.80s CPU   9507.44s WALL (  648970 calls)
     last         :    445.63s CPU    449.97s WALL (  644666 calls)
 
     h_psi        :   9258.80s CPU   9507.44s WALL (  648970 calls)
     add_vuspsi   :    528.36s CPU    534.40s WALL (  648970 calls)
 
     incdrhoscf   :    582.24s CPU    599.04s WALL (   18912 calls)
 
 
      General routines
     calbec       :    472.41s CPU    480.94s WALL ( 1299576 calls)
     fft          :      6.92s CPU      7.05s WALL (   18618 calls)
     ffts         :      0.60s CPU      0.67s WALL (    2124 calls)
     fftw         :   9158.63s CPU   9424.00s WALL (63646488 calls)
     davcio       :     10.27s CPU     21.60s WALL (  111111 calls)
     write_rec    :      5.27s CPU    138.26s WALL (    1734 calls)
 
 
     PHONON       :      3h14m CPU      3h22m WALL

 
   This run was terminated on:   5:16:14  17Oct2023            

=------------------------------------------------------------------------------=
   JOB DONE.
=------------------------------------------------------------------------------=
TACC:  Shutdown complete. Exiting. 
